LAMMPS (22 Jul 2025 - Update 3)

units           metal
atom_style      charge
boundary        p p p

read_data       data_mytm.lammps
Reading data file ...
  orthogonal box = (0 0 0) to (20.970014 20.970014 20.970014)
  1 by 2 by 3 MPI processor grid
  reading atoms ...
  1000 atoms
  read_data CPU = 0.003 seconds

set		type 1 charge 1.2
Setting atom values ...
  500 settings made for charge
set		type 2 charge -1.2
Setting atom values ...
  500 settings made for charge

pair_style	buck/coul/long 10.0

pair_coeff	1 1 38868.5 0.2066 43.773
pair_coeff	2 2 43469.3723 0.2140 5.0840
pair_coeff	1 2 12655.4 0.2089 36.798

kspace_style	pppm 1e-5

neighbor	2.0 bin
neigh_modify	delay 10 every 1 check yes

velocity	all create 3500.0 134563

# Thermodynamic variables
variable        t equal temp
variable        p equal press
variable        v equal vol
variable        s equal step

# 输出热力学量：两列（step value）
fix tprint all print 1 "${s} ${t}" file Temperature_MyTm screen no
fix pprint all print 1 "${s} ${p}" file Pressure_MyTm   screen no
fix vprint all print 1 "${s} ${v}" file Volume_MyTm     screen no

# 动力学
timestep        0.001
thermo          100
thermo_style    custom step temp press vol pe ke etotal

# NVT 升温过程
fix myNVT all npt temp 3500.0 4000.0  0.1 iso 0.0001 0.0001 1

dump mydump all custom 1 dump_mytm.lammpstrj id type x y z
dump_modify mydump sort id

run 5000
PPPM initialization ...
  using 12-bit tables for long-range coulomb
  G vector (1/distance) = 0.32426565
  grid = 24 24 24
  stencil order = 5
  estimated absolute RMS force accuracy = 0.00016397048
  estimated relative force accuracy = 1.1387119e-05
  using double precision KISS FFT
  3d grid and FFT values/proc = 8835 2304
Generated 0 of 1 mixed pair_coeff terms from geometric mixing rule
Neighbor list info ...
  update: every = 1 steps, delay = 10 steps, check = yes
  max neighbors/atom: 2000, page size: 100000
  master list distance cutoff = 12
  ghost atom cutoff = 12
  binsize = 6, bins = 4 4 4
  1 neighbor lists, perpetual/occasional/extra = 1 0 0
  (1) pair buck/coul/long, perpetual
      attributes: half, newton on
      pair build: half/bin/atomonly/newton
      stencil: half/bin/3d
      bin: standard
Per MPI rank memory allocation (min/avg/max) = 4.395 | 4.401 | 4.411 Mbytes
   Step          Temp          Press          Volume         PotEng         KinEng         TotEng    
         0   3500           529934.85      9221.3851     -7633.563       451.9581      -7181.6049    
       100   3982.5333      182627.15      10014.845     -7925.3784      514.26805     -7411.1103    
       200   3425.7946      50432.521      10717.599     -7965.2249      442.37589     -7522.8491    
       300   3269.674      -3547.1506      11127.104     -7956.7698      422.2159      -7534.5539    
       400   3421.0948     -5525.4713      11275.797     -7924.3002      441.769       -7482.5312    
       500   3413.0985      13683.541      11332.592     -7873.2485      440.73643     -7432.5121    
       600   3533.6645      14420.068      11413.746     -7850.2635      456.30522     -7393.9583    
       700   3723.5344     -523.5039       11529.25      -7852.2073      480.8233      -7371.384     
       800   3655.4393      2636.1492      11622.481     -7837.0399      472.03011     -7365.0098    
       900   3645.2736     -8051.1239      11686.896     -7835.0204      470.7174      -7364.303     
      1000   3619.1847     -602.55567      11713.218     -7827.3262      467.34852     -7359.9777    
      1100   3555.861      -4874.3428      11706.859     -7809.8072      459.17148     -7350.6357    
      1200   3710.3508      1205.2215      11688.657     -7814.0313      479.12089     -7334.9104    
      1300   3793.3316     -2925.3714      11694.468     -7823.9183      489.83627     -7334.082     
      1400   3606.2618     -6791.0682      11722.972     -7817.4309      465.67978     -7351.7511    
      1500   3679.9376     -10329.692      11713.278     -7836.6827      475.1936      -7361.4891    
      1600   3643.2781      4480.4842      11663.588     -7822.0522      470.45973     -7351.5925    
      1700   3691.9606      10874.458      11650.49      -7804.5258      476.74613     -7327.7797    
      1800   3878.6783      5621.3908      11711.207     -7820.339       500.85716     -7319.4819    
      1900   3663.5913     -1683.6603      11804.792     -7800.9937      473.08278     -7327.9109    
      2000   3477.0223     -4614.5918      11844.561     -7793.794       448.99097     -7344.8031    
      2100   3506.0956     -10862.835      11797.963     -7804.3984      452.74522     -7351.6532    
      2200   3522.0568      9186.0754      11689.611     -7781.3706      454.80631     -7326.5643    
      2300   3938.1918      11554.931      11641.81      -7819.1814      508.54219     -7310.6392    
      2400   3728.7632      118.63827      11695.686     -7803.6186      481.49849     -7322.1201    
      2500   3648.1115     -586.57093      11765.004     -7810.5021      471.08386     -7339.4183    
      2600   3615.6621     -8001.713       11790.059     -7802.1035      466.89365     -7335.2099    
      2700   3791.8751      8908.6684      11775.666     -7786.5759      489.64819     -7296.9277    
      2800   3772.3187      10391.389      11807.258     -7776.9367      487.12286     -7289.8138    
      2900   3783.9125      1684.8437      11864.631     -7778.5067      488.61997     -7289.8867    
      3000   3720.605      -1807.4434      11907.592     -7776.0904      480.44501     -7295.6454    
      3100   3827.4792     -198.3231       11936.477     -7768.2139      494.24578     -7273.9681    
      3200   3848.1215      7172.153       11962.26      -7745.2139      496.91133     -7248.3026    
      3300   3839.308       2408.6278      12024.355     -7742.3076      495.77324     -7246.5343    
      3400   3665.6398      12283.923      12100.287     -7721.6275      473.34731     -7248.2802    
      3500   3868.7637      1750.9898      12187.372     -7716.0445      499.57688     -7216.4676    
      3600   3844.2418      2302.0151      12251.615     -7693.7144      496.41034     -7197.304     
      3700   3877.8972     -2905.8534      12329.55      -7694.6456      500.7563      -7193.8893    
      3800   3741.2853     -8283.629       12388.688     -7674.2161      483.11549     -7191.1006    
      3900   4063.1232      1770.6268      12373.646     -7696.0233      524.67469     -7171.3486    
      4000   4060.8535      985.74304      12362.599     -7677.3602      524.38161     -7152.9786    
      4100   3952.8894      7077.8204      12358.085     -7670.1394      510.44011     -7159.6993    
      4200   3879.5765      1423.5976      12385.347     -7695.3462      500.97315     -7194.373     
      4300   3815.9279     -4772.191       12394.656     -7692.2487      492.75414     -7199.4945    
      4400   3852.3297      4997.4868      12363.509     -7677.0692      497.45474     -7179.6145    
      4500   4091.427       6169.9317      12337.854     -7691.7911      528.32959     -7163.4615    
      4600   3968.2675      5965.6341      12336.901     -7684.2476      512.4259      -7171.8218    
      4700   3905.5393     -6016.0696      12339.042     -7682.1247      504.32575     -7177.799     
      4800   3915.9495      4624.089       12315.729     -7677.3377      505.67003     -7171.6677    
      4900   4024.8916      10503.344      12343.44      -7682.6034      519.73781     -7162.8656    
      5000   4004.7721      12472.607      12431.867     -7645.546       517.13976     -7128.4062    
Loop time of 13.98 on 6 procs for 5000 steps with 1000 atoms

Performance: 30.901 ns/day, 0.777 hours/ns, 357.654 timesteps/s, 357.654 katom-step/s
99.7% CPU use with 6 MPI tasks x no OpenMP threads

MPI task timing breakdown:
Section |  min time  |  avg time  |  max time  |%varavg| %total
---------------------------------------------------------------
Pair    | 3.6782     | 5.1486     | 8.2952     |  69.6 | 36.83
Kspace  | 2.5536     | 5.8052     | 7.3206     |  67.6 | 41.52
Neigh   | 0.20698    | 0.25654    | 0.33605    |   7.8 |  1.84
Comm    | 0.2892     | 0.45382    | 0.5501     |  15.3 |  3.25
Output  | 0.85359    | 0.92608    | 0.98969    |   5.1 |  6.62
Modify  | 0.9408     | 1.129      | 1.5414     |  20.6 |  8.08
Other   |            | 0.2608     |            |       |  1.87

Nlocal:        166.667 ave         185 max         151 min
Histogram: 2 0 0 0 1 1 0 1 0 1
Nghost:           4020 ave        4096 max        3899 min
Histogram: 1 1 0 0 0 0 0 0 3 1
Neighs:          48394 ave       54511 max       42792 min
Histogram: 1 0 1 0 2 0 0 1 0 1

Total # of neighbors = 290364
Ave neighs/atom = 290.364
Neighbor list builds = 246
Dangerous builds = 0

unfix myNVT
Total wall time: 0:00:14
