LAMMPS (22 Jul 2025 - Update 3)

units           metal
atom_style      charge
boundary        p p p

read_data       data_mytm.lammps
Reading data file ...
  orthogonal box = (0 0 0) to (16.776011 16.776011 67.104045)
  1 by 1 by 6 MPI processor grid
  reading atoms ...
  1745 atoms
  read_data CPU = 0.004 seconds

set		type 1 charge 1.2
Setting atom values ...
  866 settings made for charge
set		type 2 charge -1.2
Setting atom values ...
  879 settings made for charge

pair_style	buck/coul/long 10.0

pair_coeff	1 1 38868.5 0.2066 43.773
pair_coeff	2 2 43469.3723 0.2140 5.0840
pair_coeff	1 2 12655.4 0.2089 36.798

kspace_style	pppm 1e-5

neighbor	2.0 bin
neigh_modify	delay 10 every 1 check yes

velocity	all create 1500.0 134563

# Thermodynamic variables
variable        t equal temp
variable        p equal press
variable        v equal vol
variable        s equal step

# 输出热力学量：两列（step value）
fix tprint all print 1 "${s} ${t}" file Temperature_MyTm screen no
fix pprint all print 1 "${s} ${p}" file Pressure_MyTm   screen no
fix vprint all print 1 "${s} ${v}" file Volume_MyTm     screen no

# 动力学
timestep        0.001
thermo          100
thermo_style    custom step temp press vol pe ke etotal

# NVT 升温过程
#fix myNVT all npt temp 1500.0 1500.0  0.1 iso 0.0001 0.0001 1
fix myNVT all nph iso 0.0001 0.0001 1

dump mydump all custom 100 dump_mytm.lammpstrj id type x y z
dump_modify mydump sort id

run 20000
PPPM initialization ...
WARNING: System is not charge neutral, net charge = -15.6
For more information see https://docs.lammps.org/err0029 (../kspace.cpp:330)
  using 12-bit tables for long-range coulomb
  G vector (1/distance) = 0.32621631
  grid = 24 24 60
  stencil order = 5
  estimated absolute RMS force accuracy = 0.00012816699
  estimated relative force accuracy = 8.900705e-06
  using double precision KISS FFT
  3d grid and FFT values/proc = 16337 5760
Generated 0 of 1 mixed pair_coeff terms from geometric mixing rule
Neighbor list info ...
  update: every = 1 steps, delay = 10 steps, check = yes
  max neighbors/atom: 2000, page size: 100000
  master list distance cutoff = 12
  ghost atom cutoff = 12
  binsize = 6, bins = 3 3 12
  1 neighbor lists, perpetual/occasional/extra = 1 0 0
  (1) pair buck/coul/long, perpetual
      attributes: half, newton on
      pair build: half/bin/atomonly/newton
      stencil: half/bin/3d
      bin: standard
Per MPI rank memory allocation (min/avg/max) = 5.076 | 5.387 | 5.555 Mbytes
   Step          Temp          Press          Volume         PotEng         KinEng         TotEng    
         0   1500           398854.13      18885.396     -12625.16       338.14454     -12287.016    
       100   4455.4817      101408.57      20965.888     -13542.186      1004.3979     -12537.788    
       200   3852.0549      19591.458      22316.845     -13450.629      868.36755     -12582.262    
       300   3779.0069     -1577.1038      22795.167     -13436.295      851.90037     -12584.395    
       400   3649.8353     -6057.5831      22892.247     -13406.923      822.78124     -12584.142    
       500   3642.2562      4606.1873      22839.611     -13405.268      821.0727      -12584.195    
       600   3663.2612     -10522.716      22881.939     -13409.983      825.80784     -12584.175    
       700   3643.306       2807.2378      22785.482     -13405.637      821.30935     -12584.328    
       800   3560.7308      8722.495       22786.306     -13387.179      802.69445     -12584.485    
       900   3505.5668      10859.468      22990.391     -13375.673      790.25886     -12585.414    
      1000   3509.7207      926.32354      23315.159     -13377.554      791.19527     -12586.359    
      1100   3448.91        3424.3789      23561.805     -13363.895      777.48672     -12586.409    
      1200   3438.2676     -2456.9409      23709.842     -13361.518      775.08761     -12586.431    
      1300   3455.3158     -1908.0199      23724.717     -13365.365      778.93077     -12586.435    
      1400   3366.6702     -3467.0777      23662.241     -13345.474      758.94744     -12586.527    
      1500   3409.8475     -4539.3198      23590.463     -13355.235      768.68087     -12586.554    
      1600   3388.1118     -2563.44        23496.158     -13350.436      763.78101     -12586.655    
      1700   3428.076       315.65106      23346.708     -13359.839      772.79013     -12587.049    
      1800   3491.0839     -1696.9056      23189.786     -13374.163      786.99396     -12587.169    
      1900   3403.3205      3839.1833      23067.273     -13354.413      767.2095      -12587.203    
      2000   3307.7214      1846.3294      22995.304     -13332.817      745.65862     -12587.158    
      2100   3392.2051      2142.6443      22993.074     -13351.871      764.70376     -12587.167    
      2200   3424.8118      1697.6033      23041.877     -13359.21       772.05427     -12587.156    
      2300   3392.3339      528.13391      23104.082     -13351.902      764.73279     -12587.169    
      2400   3345.672       1675.2665      23118.342     -13341.379      754.21381     -12587.165    
      2500   3431.2208     -4953.4429      23090.373     -13360.721      773.49906     -12587.222    
      2600   3391.8846      6393.5009      23036.979     -13351.87       764.6315      -12587.238    
      2700   3371.6998     -2390.1447      23126.527     -13347.457      760.08126     -12587.375    
      2800   3323.4254     -4694.125       23206.164     -13336.48       749.19877     -12587.281    
      2900   3263.7338     -1524.0777      23136.52      -13323.048      735.74251     -12587.305    
      3000   3330.4044     -3914.4806      23050.644     -13338.151      750.77205     -12587.379    
      3100   3419.8488      2517.8817      23012.564     -13358.363      770.93545     -12587.428    
      3200   3307.4096     -3534.9089      23091.312     -13333.004      745.58832     -12587.416    
      3300   3346.1228      627.9609       23067.672     -13341.753      754.31544     -12587.437    
      3400   3318.732      -5973.28        22976.053     -13335.814      748.14073     -12587.674    
      3500   3415.735       4643.2759      22874.291     -13357.569      770.00809     -12587.561    
      3600   3373.2924     -3567.9378      22984.188     -13348.191      760.44026     -12587.751    
      3700   3257.4053      2611.9364      23077.079     -13321.873      734.31588     -12587.557    
      3800   3282.2985     -6179.0346      23128.203     -13327.508      739.92755     -12587.58     
      3900   3200.0616      1337.8991      23092.196     -13308.964      721.3889      -12587.575    
      4000   3245.6504      2563.3975      23055.974     -13319.243      731.66598     -12587.577    
      4100   3323.6471     -2032.2692      23039.958     -13336.866      749.24874     -12587.617    
      4200   3316.4183      1395.2862      23011.051     -13335.259      747.61915     -12587.64     
      4300   3351.0042     -2530.7434      22967.471     -13343.067      755.41585     -12587.651    
      4400   3347.1934      1701.9101      22947.752     -13342.192      754.55679     -12587.635    
      4500   3261.5389     -944.10431      22987.056     -13322.877      735.24771     -12587.629    
      4600   3349.54        4048.8084      22933.114     -13342.767      755.08577     -12587.681    
      4700   3319.4085     -2130.8335      22958.628     -13336.017      748.29325     -12587.723    
      4800   3200.9494     -758.45974      23036.363     -13309.269      721.58903     -12587.68     
      4900   3245.7704      3968.7832      23042.281     -13319.336      731.69303     -12587.643    
      5000   3265.02        2563.5041      23071.033     -13323.701      736.03245     -12587.669    
      5100   3281.924       1429.4367      23097.89      -13327.542      739.84312     -12587.699    
      5200   3278.833       725.51958      23113.577     -13326.796      739.14631     -12587.649    
      5300   3309.2053     -560.38721      23163.422     -13333.659      745.99314     -12587.666    
      5400   3237.123      -5758.4161      23236.662     -13317.332      729.74365     -12587.589    
      5500   3274.7485     -2993.9462      23125.304     -13326.237      738.22555     -12588.011    
      5600   3348.5234      4500.7376      22885.496     -13343.034      754.85661     -12588.178    
      5700   3298.1591     -787.92861      22892.028     -13331.649      743.503       -12588.146    
      5800   3308.3323     -4724.2046      23101.936     -13334.247      745.79635     -12588.451    
      5900   3154.3507     -8595.2686      23197.241     -13299.165      711.08431     -12588.08     
      6000   3264.8551     -3615.865       22991.78      -13324.785      735.99529     -12588.79     
      6100   3283.0622      4276.312       22877.755     -13328.604      740.0997      -12588.504    
      6200   3365.1602     -4205.9235      22993.044     -13347.302      758.60703     -12588.695    
      6300   3222.9384     -1139.778       23056.32      -13315.076      726.54601     -12588.53     
      6400   3298.0202      625.86544      23098.532     -13332.063      743.47169     -12588.592    
      6500   3233.3486     -1421.1529      23203.314     -13317.465      728.89277     -12588.572    
      6600   3323.4993     -3739.4238      23235.072     -13337.748      749.21542     -12588.533    
      6700   3337.8805      3232.0394      23161.77      -13341.068      752.45737     -12588.61     
      6800   3258.4916     -6172.8653      23178.914     -13323.144      734.56075     -12588.584    
      6900   3226.0033     -76.731501      23173.633     -13315.78       727.23694     -12588.543    
      7000   3303.0599      2037.9366      23155.813     -13333.158      744.60778     -12588.55     
      7100   3228.3352     -6593.9128      23155.123     -13316.307      727.76261     -12588.545    
      7200   3295.4404      2443.7239      23056.862     -13331.587      742.89013     -12588.697    
      7300   3266.7588      4382.7279      22970.736     -13325.179      736.42443     -12588.755    
      7400   3274.1854      1204.0961      23003.705     -13326.828      738.09861     -12588.729    
      7500   3235.745       2757.9333      23033.799     -13318.085      729.43301     -12588.652    
      7600   3269.7765      1568.5164      23043.451     -13325.75       737.1047      -12588.646    
      7700   3280.9347      6866.2282      23083.32      -13328.357      739.62011     -12588.737    
      7800   3285.3551     -8525.673       23234.748     -13329.288      740.6166      -12588.671    
      7900   3227.2031     -3593.4766      23184.258     -13316.448      727.5074      -12588.94     
      8000   3356.1257      6152.1519      22990.636     -13345.801      756.57038     -12589.23     
      8100   3317.3592      7141.2141      22904.685     -13336.808      747.83127     -12588.977    
      8200   3234.8466     -6676.2855      23031.56      -13318.356      729.23048     -12589.125    
      8300   3291.911       1702.2125      23112.28      -13331.119      742.09448     -12589.025    
      8400   3176.7556     -2356.9716      23148.921     -13305.069      716.13505     -12588.934    
      8500   3279.1021     -3938.9031      23010.974     -13328.544      739.20697     -12589.337    
      8600   3328.4793      2759.7302      22804.072     -13339.737      750.33806     -12589.399    
      8700   3327.819       2638.4548      22748.649     -13339.563      750.18921     -12589.374    
      8800   3236.3552      4271.6753      22885.217     -13319.271      729.57056     -12589.7      
      8900   3254.5552     -8008.9439      23117.643     -13323.482      733.67337     -12589.809    
      9000   3244.2383     -1607.4949      23223.411     -13320.817      731.34764     -12589.47     
      9100   3212.7164      1204.8668      23201.411     -13313.8        724.24168     -12589.558    
      9200   3152.5721      909.18738      23182.386     -13300.25       710.68336     -12589.567    
      9300   3262.7101     -1300.1342      23198.974     -13325.122      735.51173     -12589.61     
      9400   3214.2076     -4357.2482      23168.793     -13314.174      724.57783     -12589.596    
      9500   3216.9168     -629.21033      23041.748     -13315.112      725.18857     -12589.924    
      9600   3324.5653      4115.355       22894.117     -13339.407      749.45573     -12589.951    
      9700   3274.9596      5418.5858      22854.333     -13328.14       738.27313     -12589.867    
      9800   3323.9792     -1350.7103      22939.088     -13339.316      749.3236      -12589.993    
      9900   3188.4514     -5213.3356      23087.299     -13308.737      718.77161     -12589.965    
     10000   3279.9208     -1674.3484      23021.92      -13329.55       739.39154     -12590.159    
     10100   3289.9528      2877.9727      22857.623     -13331.902      741.65305     -12590.249    
     10200   3328.5892      3725.4454      22836.838     -13340.638      750.36284     -12590.275    
     10300   3169.1076      4196.6488      23012.899     -13305.114      714.41096     -12590.703    
     10400   3135.5697     -3253.2694      23139.409     -13297.151      706.85052     -12590.301    
     10500   3243.6736     -1856.1902      23085.606     -13321.614      731.22035     -12590.394    
     10600   3248.5101     -7183.0216      23081.418     -13322.683      732.31064     -12590.372    
     10700   3295.1665     -3343.4731      23016.149     -13333.404      742.82837     -12590.576    
     10800   3253.076      -2555.0732      22899.753     -13324.079      733.33992     -12590.739    
     10900   3298.8023      3342.6002      22848.992     -13334.255      743.64799     -12590.607    
     11000   3262.8598      1851.5044      22935.063     -13326.206      735.54548     -12590.661    
     11100   3255.588      -3806.774       22985.694     -13324.501      733.90619     -12590.595    
     11200   3272.9662     -1305.9087      22961.031     -13328.488      737.82377     -12590.664    
     11300   3257.9023      4364.63        22951.739     -13325.028      734.42793     -12590.6      
     11400   3159.0939      438.00642      23052.286     -13302.969      712.15356     -12590.815    
     11500   3179.4718      72.327539      23235.924     -13307.704      716.74735     -12590.957    
     11600   3161.7899     -7151.848       23320.608     -13303.477      712.76133     -12590.715    
     11700   3295.6108     -1338.8935      23155.187     -13334.113      742.92853     -12591.185    
     11800   3201.0444      2109.7092      22995.713     -13312.729      721.61045     -12591.118    
     11900   3189.8654      2814.6727      22956.428     -13310.222      719.09037     -12591.131    
     12000   3204.0832     -1307.5887      23073.4       -13313.454      722.2955      -12591.158    
     12100   3161.0442      2383.9282      23114.551     -13303.674      712.59323     -12591.08     
     12200   3160.777       946.80574      23012.295     -13303.91       712.53298     -12591.377    
     12300   3256.7455     -2103.5428      22869.118     -13325.587      734.16714     -12591.42     
     12400   3269.7291     -3542.3225      22856.661     -13328.53       737.09402     -12591.436    
     12500   3294.2721      2062.2997      22914.931     -13334.116      742.62675     -12591.49     
     12600   3257.8792     -868.33229      23114.245     -13326.362      734.4227      -12591.939    
     12700   3187.5154     -1888.6931      23293.398     -13310.187      718.56063     -12591.627    
     12800   3211.7867     -7662.1184      23309.493     -13315.705      724.03209     -12591.673    
     12900   3185.1971     -3671.2274      23203.875     -13309.798      718.03801     -12591.76     
     13000   3279.6813     -5155.262       23001.476     -13331.686      739.33754     -12592.348    
     13100   3349.7556     -1061.4011      22816.19      -13347.435      755.13438     -12592.3      
     13200   3360.9642      1748.8116      22851.366     -13350.048      757.66114     -12592.387    
     13300   3170.0307      6371.9601      22938.9       -13306.875      714.61904     -12592.256    
     13400   3143.4213      2484.6736      23064.864     -13301.017      708.62051     -12592.396    
     13500   3154.9779     -6383.0047      23108.907     -13303.456      711.2257      -12592.23     
     13600   3244.7253     -85.652849      23006.429     -13323.89       731.45743     -12592.433    
     13700   3245.1373     -2562.8032      22964.653     -13323.933      731.55031     -12592.383    
     13800   3208.5751     -4091.2065      22989.463     -13315.714      723.30809     -12592.406    
     13900   3243.8414      1517.8168      23088.014     -13323.947      731.25818     -12592.689    
     14000   3110.8712     -5222.3437      23245.891     -13293.76       701.28274     -12592.477    
     14100   3095.2055     -182.85989      23239.916     -13290.154      697.75123     -12592.403    
     14200   3161.3094     -3515.611       23146.089     -13305.354      712.65301     -12592.701    
     14300   3280.4198     -3210.3928      23024.34      -13332.212      739.50402     -12592.708    
     14400   3205.8658      2853.832       23019.548     -13315.413      722.69735     -12592.716    
     14500   3247.1843     -5605.2873      23095.705     -13324.712      732.01176     -12592.701    
     14600   3185.4696     -1138.1188      23094.317     -13310.805      718.09942     -12592.706    
     14700   3156.6271     -5528.1304      23077.212     -13304.245      711.59747     -12592.648    
     14800   3195.231       5747.0229      23017.138     -13313.047      720.29995     -12592.747    
     14900   3233.5249      3212.8351      23030.265     -13321.686      728.93253     -12592.754    
     15000   3204.5618      5810.8752      23124.031     -13315.385      722.40337     -12592.981    
     15100   3156.3282     -4770.623       23216.962     -13304.249      711.5301      -12592.719    
     15200   3159.9399     -1682.4781      23178.046     -13305.082      712.34429     -12592.737    
     15300   3182.3802     -413.24435      23099.935     -13310.271      717.403       -12592.868    
     15400   3245.9292      1133.6309      23097.749     -13324.769      731.72883     -12593.04     
     15500   3175.828      -5851.8186      23256.92      -13308.9        715.92593     -12592.974    
     15600   3176.4054     -11394.184      23300.175     -13308.901      716.0561      -12592.845    
     15700   3194.2985     -606.69593      23078.62      -13313.871      720.08972     -12593.781    
     15800   3186.8669      2236.95        22878.766     -13311.944      718.41443     -12593.53     
     15900   3243.485       4956.5524      22816.132     -13324.649      731.17783     -12593.472    
     16000   3179.4686     -96.051674      22910.958     -13310.21       716.74664     -12593.464    
     16100   3270.4011     -2870.5375      22938.965     -13330.688      737.24552     -12593.442    
     16200   3201.0512     -3842.4922      22896.241     -13315.155      721.61199     -12593.543    
     16300   3167.6727      10102.184      22777.992     -13307.717      714.08749     -12593.63     
     16400   3229.2401      3862.2938      22898.313     -13322.16       727.96661     -12594.193    
     16500   3115.0253      4304.8914      23122.856     -13296.33       702.21919     -12594.111    
     16600   3172.8429     -5790.9016      23305.768     -13309.248      715.253       -12593.995    
     16700   3120.1899     -284.91104      23325.887     -13297.26       703.38345     -12593.877    
     16800   3121.723      -4466.0144      23235.304     -13297.901      703.72907     -12594.172    
     16900   3225.6591     -3830.2886      23037.908     -13321.714      727.15934     -12594.554    
     17000   3263.7937      6971.283       22913.447     -13330.209      735.75601     -12594.453    
     17100   3170.2589     -797.75997      23061.745     -13309.361      714.6705      -12594.691    
     17200   3156.5106     -1799.9041      23159.924     -13306.013      711.57122     -12594.442    
     17300   3203.5303      1806.7504      23144.028     -13316.668      722.17085     -12594.497    
     17400   3233.3363     -2667.1198      23090.962     -13323.483      728.89002     -12594.593    
     17500   3190.929      -4564.8024      23003.005     -13314.043      719.33014     -12594.713    
     17600   3179.2969      2500.7609      22871.163     -13311.454      716.70793     -12594.746    
     17700   3216.0646      7139.9875      22854.138     -13319.78       724.99645     -12594.783    
     17800   3195.5179     -230.1781       22983.309     -13315.226      720.36462     -12594.861    
     17900   3208.8241      1436.8825      23097.283     -13318.223      723.36424     -12594.859    
     18000   3161.8222     -1572.0047      23186.081     -13307.557      712.76861     -12594.788    
     18100   3277.4634     -1293.4992      23194.999     -13333.661      738.83756     -12594.824    
     18200   3187.1251      2382.0481      23155.534     -13313.313      718.47263     -12594.841    
     18300   3129.9406      6862.8575      23108.562     -13300.407      705.58155     -12594.825    
     18400   3184.2539      872.48081      23174.751     -13312.767      717.82538     -12594.941    
     18500   3147.9479     -3436.1243      23243.155     -13304.427      709.64092     -12594.786    
     18600   3117.0175     -2133.1451      23137.745     -13297.878      702.6683      -12595.209    
     18700   3165.8333      3700.8552      23000.278     -13308.777      713.67282     -12595.105    
     18800   3239.0276      3085.1973      23012.486     -13325.294      730.173       -12595.121    
     18900   3180.0192     -628.57931      23084.369     -13311.931      716.87075     -12595.06     
     19000   3136.4342      3004.0586      23095.249     -13302.073      707.0454      -12595.028    
     19100   3228.868      -1743.0041      23078.041     -13323.041      727.88272     -12595.158    
     19200   3248.8339     -3309.2748      23003.568     -13327.592      732.38364     -12595.208    
     19300   3191.0924      1319.7445      22898.83      -13314.626      719.36697     -12595.259    
     19400   3196.4145      3315.9862      22835.089     -13315.832      720.56674     -12595.266    
     19500   3250.1833      4345.2406      22834.123     -13328.015      732.68782     -12595.327    
     19600   3227.1789     -3707.0484      23015.586     -13323.057      727.50194     -12595.555    
     19700   3170.2579     -1792.9628      23163.832     -13310.095      714.67026     -12595.425    
     19800   3153.4362     -5831.2091      23216.268     -13306.19       710.87816     -12595.312    
     19900   3205.2878     -3145.2674      23097.525     -13318.329      722.56705     -12595.762    
     20000   3155.7743      559.65841      22853.431     -13307.495      711.40523     -12596.089    
Loop time of 115.945 on 6 procs for 20000 steps with 1745 atoms

Performance: 14.904 ns/day, 1.610 hours/ns, 172.495 timesteps/s, 301.004 katom-step/s
99.9% CPU use with 6 MPI tasks x no OpenMP threads

MPI task timing breakdown:
Section |  min time  |  avg time  |  max time  |%varavg| %total
---------------------------------------------------------------
Pair    | 20.023     | 37.381     | 70.769     | 318.2 | 32.24
Kspace  | 24.881     | 60.064     | 80.128     | 266.8 | 51.80
Neigh   | 1.3036     | 2.0119     | 3.1423     |  47.5 |  1.74
Comm    | 1.1635     | 2.4553     | 3.5085     |  66.2 |  2.12
Output  | 0.07398    | 0.080497   | 0.086625   |   1.5 |  0.07
Modify  | 8.7881     | 11.119     | 15.76      |  87.1 |  9.59
Other   |            | 2.834      |            |       |  2.44

Nlocal:        290.833 ave         335 max         260 min
Histogram: 2 0 1 0 1 0 0 1 0 1
Nghost:        4399.67 ave        4679 max        4141 min
Histogram: 2 0 0 0 1 1 0 0 1 1
Neighs:        81247.5 ave      109074 max       66026 min
Histogram: 2 1 1 0 0 0 1 0 0 1

Total # of neighbors = 487485
Ave neighs/atom = 279.36103
Neighbor list builds = 974
Dangerous builds = 17

unfix myNVT
Total wall time: 0:01:55
