LAMMPS (22 Jul 2025 - Update 3)

units           metal
atom_style      charge
boundary        p p p

read_data       data_mytm.lammps
Reading data file ...
  orthogonal box = (0 0 0) to (14.082008 14.082008 70.410042)
  1 by 1 by 6 MPI processor grid
  reading atoms ...
  1080 atoms
  read_data CPU = 0.003 seconds

set		type 1 charge 1.2
Setting atom values ...
  540 settings made for charge
set		type 2 charge -1.2
Setting atom values ...
  540 settings made for charge

pair_style	buck/coul/long 10.0

pair_coeff	1 1 38868.5 0.2066 43.773
pair_coeff	2 2 43469.3723 0.2140 5.0840
pair_coeff	1 2 12655.4 0.2089 36.798

kspace_style	pppm 1e-5

neighbor	2.0 bin
neigh_modify	delay 10 every 1 check yes

velocity	all create 3656.25 134563

# Thermodynamic variables
variable        t equal temp
variable        p equal press
variable        v equal vol
variable        s equal step

# 输出热力学量：两列（step value）
fix tprint all print 1 "${s} ${t}" file Temperature_MyTm screen no
fix pprint all print 1 "${s} ${p}" file Pressure_MyTm   screen no
fix vprint all print 1 "${s} ${v}" file Volume_MyTm     screen no

# 动力学
timestep        0.001
thermo          100
thermo_style    custom step temp press vol pe ke etotal

# NVT 升温过程
#fix myNVT all npt temp 3656.25 3656.25  0.1 iso 0.0001 0.0001 1
#fix myNVT all nph iso 0.0001 0.0001 1
fix myNVT all nve
dump mydump all custom 100 dump_mytm.lammpstrj id type x y z
dump_modify mydump sort id

run 80000
PPPM initialization ...
  using 12-bit tables for long-range coulomb
  G vector (1/distance) = 0.32217281
  grid = 18 18 60
  stencil order = 5
  estimated absolute RMS force accuracy = 0.00015788395
  estimated relative force accuracy = 1.0964434e-05
  using double precision KISS FFT
  3d grid and FFT values/proc = 10625 3240
Generated 0 of 1 mixed pair_coeff terms from geometric mixing rule
Neighbor list info ...
  update: every = 1 steps, delay = 10 steps, check = yes
  max neighbors/atom: 2000, page size: 100000
  master list distance cutoff = 12
  ghost atom cutoff = 12
  binsize = 6, bins = 3 3 12
  1 neighbor lists, perpetual/occasional/extra = 1 0 0
  (1) pair buck/coul/long, perpetual
      attributes: half, newton on
      pair build: half/bin/atomonly/newton
      stencil: half/bin/3d
      bin: standard
Per MPI rank memory allocation (min/avg/max) = 4.526 | 4.543 | 4.563 Mbytes
   Step          Temp          Press          Volume         PotEng         KinEng         TotEng    
         0   3656.25       -22260.554      13962.519     -8331.2765      509.94339     -7821.3331    
       100   3383.6394     -25753.062      13962.519     -8293.2109      471.92193     -7821.289     
       200   3300.8258     -8359.3949      13962.519     -8281.6345      460.37178     -7821.2628    
       300   3263.3556     -12536.395      13962.519     -8276.4475      455.14574     -7821.3017    
       400   3320.5264     -15135.78       13962.519     -8284.4026      463.11946     -7821.2831    
       500   3226.4902     -15323.933      13962.519     -8271.2383      450.00407     -7821.2342    
       600   3256.3327     -14230.503      13962.519     -8275.3986      454.16624     -7821.2324    
       700   3327.9245     -10267.421      13962.519     -8285.4357      464.15127     -7821.2845    
       800   3161.0179     -7412.798       13962.519     -8262.1107      440.87253     -7821.2382    
       900   3376.6547     -14265.075      13962.519     -8292.2581      470.94776     -7821.3104    
      1000   3241.6689     -8694.8454      13962.519     -8273.3804      452.12106     -7821.2593    
      1100   3255.433      -4720.1015      13962.519     -8275.3312      454.04077     -7821.2904    
      1200   3288.485      -4183.5118      13962.519     -8279.9579      458.65058     -7821.3073    
      1300   3200.7987     -15425.581      13962.519     -8267.6924      446.42082     -7821.2716    
      1400   3239.9128     -10176.993      13962.519     -8273.1294      451.87613     -7821.2532    
      1500   3251.628      -15753.621      13962.519     -8274.78        453.51007     -7821.2699    
      1600   3239.8833     -9169.557       13962.519     -8273.1443      451.87203     -7821.2723    
      1700   3285.104      -15551.737      13962.519     -8279.4718      458.17902     -7821.2927    
      1800   3217.3297     -9814.4032      13962.519     -8269.9772      448.72644     -7821.2507    
      1900   3229.9208     -5744.8777      13962.519     -8271.7721      450.48253     -7821.2896    
      2000   3277.9691     -25941.149      13962.519     -8278.4796      457.18391     -7821.2957    
      2100   3358.3032     -18522.455      13962.519     -8289.6727      468.38824     -7821.2845    
      2200   3227.7666     -11071.251      13962.519     -8271.4384      450.18208     -7821.2563    
      2300   3330.2027     -6471.5468      13962.519     -8285.7438      464.46902     -7821.2748    
      2400   3189.1767      555.27021      13962.519     -8266.0716      444.79989     -7821.2717    
      2500   3304.1294     -3675.3585      13962.519     -8282.0908      460.83253     -7821.2583    
      2600   3252.8809     -11505.18       13962.519     -8274.9541      453.68482     -7821.2693    
      2700   3177.6683     -5815.8837      13962.519     -8264.4277      443.19479     -7821.2329    
      2800   3213.6662     -14621.227      13962.519     -8269.4797      448.21548     -7821.2642    
      2900   3247.7865     -13159.521      13962.519     -8274.2241      452.97429     -7821.2498    
      3000   3140.7589     -9942.7461      13962.519     -8259.2733      438.04698     -7821.2263    
      3100   3250.9971     -11217.576      13962.519     -8274.6843      453.42208     -7821.2622    
      3200   3208.3371     -12640.908      13962.519     -8268.7307      447.47222     -7821.2585    
      3300   3185.181      -11274.954      13962.519     -8265.4706      444.2426      -7821.228     
      3400   3125.7536     -10567.294      13962.519     -8257.1979      435.95416     -7821.2437    
      3500   3156.6779     -11087.981      13962.519     -8261.5025      440.26723     -7821.2352    
      3600   3185.5056     -9102.2883      13962.519     -8265.5466      444.28787     -7821.2588    
      3700   3160.3211     -6951.447       13962.519     -8262.0255      440.77535     -7821.2502    
      3800   3179.1743     -10912.615      13962.519     -8264.6357      443.40483     -7821.2309    
      3900   3189.4726     -8924.6117      13962.519     -8266.0921      444.84115     -7821.2509    
      4000   3285.4485     -2382.6466      13962.519     -8279.5244      458.22708     -7821.2973    
      4100   3115.8602      1180.9415      13962.519     -8255.8087      434.57431     -7821.2344    
      4200   3220.2297     -9309.3722      13962.519     -8270.3857      449.13091     -7821.2548    
      4300   3170.7769     -4792.9641      13962.519     -8263.4941      442.23364     -7821.2604    
      4400   3274.0197     -2044.4435      13962.519     -8277.9164      456.63308     -7821.2833    
      4500   3297.9612      1211.6687      13962.519     -8281.2756      459.97225     -7821.3034    
      4600   3362.2264     -1344.1791      13962.519     -8290.2659      468.93542     -7821.3305    
      4700   3269.1625     -6029.3201      13962.519     -8277.2383      455.95564     -7821.2827    
      4800   3242.2129     -5515.8572      13962.519     -8273.4808      452.19693     -7821.2839    
      4900   3191.8991     -3701.4448      13962.519     -8266.4391      445.17958     -7821.2595    
      5000   3130.0294     -12768.427      13962.519     -8257.7892      436.55051     -7821.2387    
      5100   3183.8926     -6666.6652      13962.519     -8265.2953      444.0629      -7821.2324    
      5200   3254.7623     -8470.7423      13962.519     -8275.225       453.94722     -7821.2778    
      5300   3154.9651     -6102.5213      13962.519     -8261.2903      440.02833     -7821.262     
      5400   3217.86       -11873.654      13962.519     -8270.0549      448.80039     -7821.2545    
      5500   3155.366      -1619.9086      13962.519     -8261.3749      440.08424     -7821.2907    
      5600   3209.205      -5540.9427      13962.519     -8268.8458      447.59326     -7821.2526    
      5700   3194.6924     -2877.9578      13962.519     -8266.8116      445.56917     -7821.2424    
      5800   3309.4185     -4392.8616      13962.519     -8282.8674      461.57022     -7821.2971    
      5900   3170.1413      315.06265      13962.519     -8263.408       442.14498     -7821.263     
      6000   3195.3703     -4662.4589      13962.519     -8266.9008      445.66372     -7821.2371    
      6100   3187.4507      247.3313       13962.519     -8265.7993      444.55916     -7821.2402    
      6200   3196.0021     -6403.4738      13962.519     -8267.0057      445.75183     -7821.2539    
      6300   3276.5213     -8971.8729      13962.519     -8278.2451      456.98199     -7821.2631    
      6400   3261.3688     -10515.609      13962.519     -8276.1458      454.86864     -7821.2772    
      6500   3210.2123     -8964.3468      13962.519     -8268.9951      447.73376     -7821.2613    
      6600   3167.1166     -12025.324      13962.519     -8262.9782      441.72312     -7821.2551    
      6700   3109.7492     -8099.341       13962.519     -8254.9708      433.72199     -7821.2488    
      6800   3299.7615     -11093.326      13962.519     -8281.4841      460.22333     -7821.2608    
      6900   3137.1911      4665.2473      13962.519     -8258.7867      437.54936     -7821.2374    
      7000   3176.5542      358.88507      13962.519     -8264.2878      443.0394      -7821.2484    
      7100   3231.23       -1319.5863      13962.519     -8271.9442      450.66512     -7821.2791    
      7200   3005.9718      514.53869      13962.519     -8240.499       419.24799     -7821.251     
      7300   3202.3318     -6000.7802      13962.519     -8267.8993      446.63465     -7821.2647    
      7400   3150.0337     -12428.194      13962.519     -8260.619       439.34055     -7821.2784    
      7500   3153.9753     -9879.15        13962.519     -8261.1868      439.89028     -7821.2965    
      7600   3129.2999     -7761.4079      13962.519     -8257.7275      436.44876     -7821.2787    
      7700   3100.0315     -12326.529      13962.519     -8253.5753      432.36665     -7821.2087    
      7800   3165.9468     -11605.51       13962.519     -8262.8038      441.55997     -7821.2439    
      7900   3196.7586     -6230.1275      13962.519     -8267.1107      445.85735     -7821.2533    
      8000   3139.0237     -6482.5323      13962.519     -8259.0254      437.80497     -7821.2205    
      8100   3043.4903     -4886.0219      13962.519     -8245.6954      424.48075     -7821.2146    
      8200   3237.0911     -5831.8285      13962.519     -8272.7182      451.48259     -7821.2356    
      8300   3133.5692     -6494.1862      13962.519     -8258.3365      437.04421     -7821.2923    
      8400   3105.5458     -3063.076       13962.519     -8254.3984      433.13575     -7821.2627    
      8500   3209.2512     -3840.9067      13962.519     -8268.8598      447.59971     -7821.2601    
      8600   3106.6363     -11575.099      13962.519     -8254.5473      433.28784     -7821.2595    
      8700   3125.3405     -2684.366       13962.519     -8257.1232      435.89654     -7821.2266    
      8800   3177.1601     -1935.841       13962.519     -8264.3903      443.12391     -7821.2664    
      8900   3099.2276     -3545.1242      13962.519     -8253.5083      432.25453     -7821.2538    
      9000   3021.8019     -4623.829       13962.519     -8242.6673      421.45583     -7821.2115    
      9100   3065.4458     -3891.133       13962.519     -8248.7794      427.54292     -7821.2365    
      9200   3112.7082     -5994.2621      13962.519     -8255.3945      434.13469     -7821.2598    
      9300   3140.2665      727.97968      13962.519     -8259.2811      437.97829     -7821.3028    
      9400   3202.043      -6534.1391      13962.519     -8267.8857      446.59436     -7821.2913    
      9500   3101.3429      1621.4173      13962.519     -8253.8089      432.54955     -7821.2593    
      9600   3196.5995     -3719.7077      13962.519     -8267.1438      445.83516     -7821.3086    
      9700   3139.2247     -3049.8513      13962.519     -8259.0829      437.83299     -7821.2499    
      9800   3120.0229      244.22694      13962.519     -8256.3988      435.15489     -7821.2439    
      9900   3085.5903     -7177.8311      13962.519     -8251.5909      430.35251     -7821.2384    
     10000   3063.6931     -1095.9759      13962.519     -8248.5525      427.29847     -7821.254     
     10100   3067.1706     -9272.6065      13962.519     -8249.0177      427.78349     -7821.2342    
     10200   3123.5926     -3607.4969      13962.519     -8256.9222      435.65276     -7821.2694    
     10300   3089.0958     -7071.4887      13962.519     -8252.0855      430.84143     -7821.2441    
     10400   3112.0713      2313.0867      13962.519     -8255.3038      434.04586     -7821.258     
     10500   3182.4472     -4965.5179      13962.519     -8265.1303      443.86131     -7821.269     
     10600   3060.728      -2802.7571      13962.519     -8248.1136      426.88492     -7821.2287    
     10700   3117.499      -2759.1778      13962.519     -8256.0664      434.80288     -7821.2636    
     10800   3136.698       3797.586       13962.519     -8258.7347      437.48059     -7821.2541    
     10900   3104.1087      2479.1974      13962.519     -8254.2082      432.93531     -7821.2729    
     11000   3129.855      -251.00742      13962.519     -8257.8026      436.52619     -7821.2764    
     11100   3124.4653      405.70798      13962.519     -8257.0251      435.77448     -7821.2506    
     11200   3210.3201     -8543.7427      13962.519     -8269.0404      447.74879     -7821.2916    
     11300   3149.1749     -182.4357       13962.519     -8260.4911      439.22076     -7821.2703    
     11400   3136.7597     -228.62613      13962.519     -8258.7488      437.48919     -7821.2596    
     11500   3132.9164     -5889.8741      13962.519     -8258.2389      436.95317     -7821.2857    
     11600   3106.5453     -10852.381      13962.519     -8254.5127      433.27514     -7821.2376    
     11700   3084.9098     -8976.5356      13962.519     -8251.4725      430.2576      -7821.2149    
     11800   3036.8658     -9284.4737      13962.519     -8244.789       423.55682     -7821.2322    
     11900   3118.5165     -7800.9932      13962.519     -8256.1947      434.94479     -7821.2499    
     12000   3155.8989      59.612031      13962.519     -8261.4231      440.15857     -7821.2646    
     12100   3050.0167     -1493.7011      13962.519     -8246.6051      425.391       -7821.2141    
     12200   3098.8206      1020.8846      13962.519     -8253.4591      432.19777     -7821.2613    
     12300   3106.7499     -2230.4407      13962.519     -8254.576       433.30367     -7821.2723    
     12400   3140.867       1806.9924      13962.519     -8259.361       438.06205     -7821.2989    
     12500   3186.8882     -8500.7525      13962.519     -8265.784       444.48071     -7821.3033    
     12600   3182.6891     -8391.5516      13962.519     -8265.1601      443.89505     -7821.265     
     12700   3139.4515     -6338.6994      13962.519     -8259.0973      437.86463     -7821.2326    
     12800   3138.8538     -1171.2983      13962.519     -8259.0405      437.78127     -7821.2592    
     12900   3130.0779      2832.7968      13962.519     -8257.7829      436.55728     -7821.2257    
     13000   3197.9364     -8493.2379      13962.519     -8267.2764      446.02162     -7821.2548    
     13100   3023.5766     -1450.9426      13962.519     -8242.909       421.70336     -7821.2056    
     13200   3119.5873     -6013.2644      13962.519     -8256.3614      435.09413     -7821.2672    
     13300   3107.7623     -5863.5691      13962.519     -8254.673       433.44489     -7821.2281    
     13400   3096.7833      240.28628      13962.519     -8253.1523      431.91362     -7821.2387    
     13500   3132.1113     -6542.9254      13962.519     -8258.1102      436.84088     -7821.2694    
     13600   3242.1258     -6089.2527      13962.519     -8273.4682      452.18479     -7821.2834    
     13700   3182.4148     -8015.0789      13962.519     -8265.1084      443.85679     -7821.2516    
     13800   3086.512      -2899.6405      13962.519     -8251.6746      430.48107     -7821.1936    
     13900   3177.4352     -11965.968      13962.519     -8264.4303      443.16228     -7821.268     
     14000   3184.5967     -3116.5974      13962.519     -8265.4145      444.16111     -7821.2534    
     14100   3162.5154     -8615.3983      13962.519     -8262.3469      441.08138     -7821.2655    
     14200   3148.8397     -3747.3441      13962.519     -8260.4644      439.17402     -7821.2904    
     14300   3189.0814      1690.3421      13962.519     -8266.0671      444.7866      -7821.2805    
     14400   3050.6799     -1159.5899      13962.519     -8246.7512      425.4835      -7821.2677    
     14500   3111.7896     -12059.338      13962.519     -8255.2266      434.00657     -7821.22      
     14600   3200.7363     -10885.944      13962.519     -8267.7054      446.41212     -7821.2933    
     14700   3199.1524     -16405.78       13962.519     -8267.4622      446.19122     -7821.271     
     14800   3111.7042     -1812.2904      13962.519     -8255.2353      433.99466     -7821.2406    
     14900   3212.447      -13655.756      13962.519     -8269.3114      448.04544     -7821.266     
     15000   3157.8742     -9423.8686      13962.519     -8261.7001      440.43408     -7821.266     
     15100   3164.0391     -9463.5611      13962.519     -8262.553       441.29391     -7821.2591    
     15200   3168.5455     -12106.713      13962.519     -8263.1538      441.92242     -7821.2314    
     15300   3053.729      -1214.9535      13962.519     -8247.1296      425.90876     -7821.2209    
     15400   3156.1992     -8239.1325      13962.519     -8261.4477      440.20045     -7821.2472    
     15500   3099.475      -8199.668       13962.519     -8253.5562      432.28904     -7821.2672    
     15600   3189.9379     -10904.076      13962.519     -8266.1407      444.90605     -7821.2347    
     15700   3169.7749     -6152.8247      13962.519     -8263.3653      442.09388     -7821.2714    
     15800   3228.0858     -10122.217      13962.519     -8271.5186      450.22661     -7821.292     
     15900   3173.2558      2016.6203      13962.519     -8263.8334      442.57937     -7821.254     
     16000   3192.4697     -7057.7388      13962.519     -8266.5608      445.25916     -7821.3017    
     16100   3155.5027     -5017.2613      13962.519     -8261.3603      440.10331     -7821.257     
     16200   3185.4544     -3210.5236      13962.519     -8265.5778      444.28072     -7821.2971    
     16300   3229.5983     -8491.5336      13962.519     -8271.7214      450.43756     -7821.2839    
     16400   3205.4846     -1732.4773      13962.519     -8268.3431      447.07438     -7821.2687    
     16500   3154.3432     -843.17411      13962.519     -8261.2036      439.9416      -7821.262     
     16600   3223.4824     -12122.791      13962.519     -8270.8289      449.58456     -7821.2444    
     16700   3215.3251     -17142.008      13962.519     -8269.6869      448.44685     -7821.24      
     16800   3104.4113     -4455.9381      13962.519     -8254.1817      432.97751     -7821.2042    
     16900   3184.2765     -12735.834      13962.519     -8265.3783      444.11644     -7821.2618    
     17000   3169.7458     -3373.822       13962.519     -8263.3162      442.08982     -7821.2264    
     17100   3190.7369     -9171.8797      13962.519     -8266.2782      445.01748     -7821.2607    
     17200   3198.3178     -5272.1115      13962.519     -8267.3537      446.07481     -7821.2789    
     17300   3265.9128     -17781.38       13962.519     -8276.7618      455.5024      -7821.2594    
     17400   3093.6338      1492.2751      13962.519     -8252.6893      431.47435     -7821.2149    
     17500   3122.4476     -7647.1281      13962.519     -8256.7377      435.49307     -7821.2447    
     17600   3198.4803     -5595.4903      13962.519     -8267.3551      446.09748     -7821.2576    
     17700   3120.0196     -11598.92       13962.519     -8256.3838      435.15443     -7821.2294    
     17800   3208.5049     -15504.904      13962.519     -8268.7674      447.49563     -7821.2718    
     17900   3224.4665     -6437.9273      13962.519     -8271.0153      449.72181     -7821.2935    
     18000   3223.7236     -3840.1923      13962.519     -8270.895       449.6182      -7821.2768    
     18100   3177.8052     -4585.284       13962.519     -8264.4395      443.21388     -7821.2256    
     18200   3104.5079      909.92154      13962.519     -8254.2801      432.99098     -7821.2891    
     18300   3311.5217     -11424.881      13962.519     -8283.1781      461.86355     -7821.3146    
     18400   3201.2071     -12498.012      13962.519     -8267.7399      446.47779     -7821.2622    
     18500   3134.9174     -8738.6704      13962.519     -8258.491       437.23225     -7821.2587    
     18600   3219.342      -4781.9775      13962.519     -8270.2827      449.00709     -7821.2756    
     18700   3041.5684     -3512.8986      13962.519     -8245.4304      424.2127      -7821.2177    
     18800   3134.0236     -3807.0405      13962.519     -8258.3672      437.10758     -7821.2596    
     18900   3091.5813     -4648.0025      13962.519     -8252.471       431.18809     -7821.2829    
     19000   3217.9087     -7054.8749      13962.519     -8270.044       448.80719     -7821.2368    
     19100   3207.7702     -3720.7496      13962.519     -8268.6525      447.39315     -7821.2594    
     19200   3231.8027     -5731.8643      13962.519     -8272.029       450.74501     -7821.284     
     19300   3279.4362     -8235.1877      13962.519     -8278.6394      457.38853     -7821.2508    
     19400   3143.6972     -2043.7338      13962.519     -8259.7022      438.45679     -7821.2454    
     19500   3255.3823     -8132.4196      13962.519     -8275.3073      454.03369     -7821.2736    
     19600   3272.0832     -4428.4653      13962.519     -8277.6667      456.36299     -7821.3037    
     19700   3209.7828     -8100.8341      13962.519     -8268.9731      447.67385     -7821.2992    
     19800   3121.9748     -12430.1        13962.519     -8256.6793      435.42712     -7821.2522    
     19900   3164.2276     -6231.8962      13962.519     -8262.5828      441.32019     -7821.2626    
     20000   3117.8606     -4526.0565      13962.519     -8256.0926      434.85331     -7821.2393    
     20100   3108.3098     -2539.3168      13962.519     -8254.7762      433.52125     -7821.255     
     20200   3269.0548     -3800.6371      13962.519     -8277.2427      455.94062     -7821.3021    
     20300   3131.9495      3798.2843      13962.519     -8258.0983      436.81832     -7821.2799    
     20400   3280.525       800.92888      13962.519     -8278.8342      457.54039     -7821.2938    
     20500   3223.8606     -4540.77        13962.519     -8270.9272      449.63731     -7821.2899    
     20600   3203.2227     -7541.5808      13962.519     -8267.9808      446.75891     -7821.2219    
     20700   3102.1134     -3288.0815      13962.519     -8253.8864      432.65702     -7821.2293    
     20800   3026.2531     -3429.1711      13962.519     -8243.312       422.07665     -7821.2354    
     20900   3151.3366     -2686.1221      13962.519     -8260.77        439.52227     -7821.2478    
     21000   3164.128      -3594.2968      13962.519     -8262.5533      441.30631     -7821.247     
     21100   3203.29       -7097.624       13962.519     -8268.0475      446.76828     -7821.2792    
     21200   3246.5308     -2160.2254      13962.519     -8274.0861      452.79915     -7821.287     
     21300   3175.5696     -7222.157       13962.519     -8264.1946      442.90209     -7821.2925    
     21400   3153.6976     -7476.9843      13962.519     -8261.113       439.85155     -7821.2615    
     21500   3117.5776     -7385.9289      13962.519     -8256.073       434.81383     -7821.2591    
     21600   3187.4651     -13985.875      13962.519     -8265.8087      444.56116     -7821.2476    
     21700   3185.7319      2820.1753      13962.519     -8265.5896      444.31944     -7821.2701    
     21800   3133.2487     -2974.3902      13962.519     -8258.2388      436.99952     -7821.2393    
     21900   3137.9031     -5590.1116      13962.519     -8258.9409      437.64867     -7821.2922    
     22000   3135.883       3803.7335      13962.519     -8258.6281      437.36693     -7821.2612    
     22100   3165.4772     -1326.4845      13962.519     -8262.7276      441.49447     -7821.2331    
     22200   3143.8941     -1561.2952      13962.519     -8259.7672      438.48424     -7821.283     
     22300   3174.5231     -6242.7763      13962.519     -8264.0287      442.75612     -7821.2725    
     22400   3143.8123     -5169.9558      13962.519     -8259.7583      438.47283     -7821.2855    
     22500   3148.1514     -5981.0479      13962.519     -8260.3411      439.07801     -7821.2631    
     22600   3224.2703     -11219.902      13962.519     -8270.9505      449.69445     -7821.256     
     22700   3210.8669     -8165.1609      13962.519     -8269.0815      447.82505     -7821.2564    
     22800   3124.6313      309.18408      13962.519     -8257.0316      435.79763     -7821.234     
     22900   3120.6046     -10258.433      13962.519     -8256.4589      435.23602     -7821.2229    
     23000   3135.1556     -7565.4387      13962.519     -8258.5201      437.26547     -7821.2546    
     23100   3133.8342     -10154.155      13962.519     -8258.3376      437.08118     -7821.2564    
     23200   3198.8466     -2763.6659      13962.519     -8267.4131      446.14856     -7821.2646    
     23300   3146.833      -6869.1143      13962.519     -8260.1567      438.89413     -7821.2626    
     23400   3174.5842     -4345.0559      13962.519     -8263.9997      442.76465     -7821.235     
     23500   3126.0057     -3609.9587      13962.519     -8257.226       435.98931     -7821.2367    
     23600   3232.6607     -10378.55       13962.519     -8272.1373      450.86467     -7821.2726    
     23700   3225.4626     -3681.3131      13962.519     -8271.1333      449.86074     -7821.2725    
     23800   3234.7442     -5491.2796      13962.519     -8272.4255      451.15526     -7821.2703    
     23900   3159.1909     -9819.8328      13962.519     -8261.8899      440.61771     -7821.2722    
     24000   3201.7548     -5454.4674      13962.519     -8267.8312      446.55417     -7821.277     
     24100   3226.4356      501.06011      13962.519     -8271.2806      449.99645     -7821.2842    
     24200   3063.7799     -6519.9699      13962.519     -8248.5643      427.31059     -7821.2537    
     24300   3144.5352     -8546.6582      13962.519     -8259.8344      438.57366     -7821.2608    
     24400   3100.6389     -3468.665       13962.519     -8253.6934      432.45136     -7821.242     
     24500   3130.8073     -5763.5963      13962.519     -8257.9282      436.65901     -7821.2692    
     24600   3262.5515     -16541.266      13962.519     -8276.2805      455.0336      -7821.2469    
     24700   3140.0198     -7899.1104      13962.519     -8259.1683      437.94389     -7821.2244    
     24800   3181.7845      460.1732       13962.519     -8265.0475      443.76889     -7821.2786    
     24900   3138.6172      1497.114       13962.519     -8259.0032      437.74826     -7821.2549    
     25000   3116.0557      3130.9481      13962.519     -8255.8438      434.60157     -7821.2422    
     25100   3186.6155     -4554.8833      13962.519     -8265.667       444.44266     -7821.2244    
     25200   3083.9203     -8748.4112      13962.519     -8251.3608      430.1196      -7821.2412    
     25300   3208.3492     -286.05933      13962.519     -8268.7383      447.47391     -7821.2644    
     25400   3088.1591     -5711.9713      13962.519     -8251.953       430.71078     -7821.2423    
     25500   3144.8836     -5291.0594      13962.519     -8259.8799      438.62225     -7821.2576    
     25600   3222.567      -6849.3237      13962.519     -8270.7089      449.45688     -7821.252     
     25700   3176.0216     -7476.0874      13962.519     -8264.2427      442.96512     -7821.2776    
     25800   3196.0293     -7494.4491      13962.519     -8266.9937      445.75563     -7821.2381    
     25900   3105.7259      5838.6701      13962.519     -8254.4304      433.16086     -7821.2695    
     26000   2953.0197      5732.2372      13962.519     -8233.0963      411.86267     -7821.2336    
     26100   3184.5516     -2807.4105      13962.519     -8265.4206      444.15481     -7821.2658    
     26200   3069.9071      424.16549      13962.519     -8249.4031      428.16515     -7821.2379    
     26300   3068.7424      1969.9617      13962.519     -8249.2306      428.00271     -7821.2279    
     26400   3117.1469     -7633.8994      13962.519     -8255.9651      434.75376     -7821.2113    
     26500   3112.7664     -6062.5198      13962.519     -8255.3589      434.14281     -7821.216     
     26600   3071.2039      1743.4077      13962.519     -8249.6024      428.34601     -7821.2564    
     26700   3142.9136     -3689.4029      13962.519     -8259.6031      438.34749     -7821.2557    
     26800   3053.8593      9309.6279      13962.519     -8247.1712      425.92694     -7821.2443    
     26900   3103.8501      2205.5637      13962.519     -8254.1279      432.89924     -7821.2287    
     27000   3116.3077      1102.4742      13962.519     -8255.9086      434.63672     -7821.2719    
     27100   3150.7481      3484.9067      13962.519     -8260.7387      439.44019     -7821.2985    
     27200   3111.463      -143.21723      13962.519     -8255.2286      433.96102     -7821.2675    
     27300   3160.136      -5283.1096      13962.519     -8261.9866      440.74953     -7821.2371    
     27400   3114.9223     -7253.8893      13962.519     -8255.6927      434.4435      -7821.2492    
     27500   3131.3313     -2862.2853      13962.519     -8257.9908      436.73209     -7821.2587    
     27600   3085.1725     -8948.1001      13962.519     -8251.5008      430.29425     -7821.2066    
     27700   3151.1509     -3071.6745      13962.519     -8260.7213      439.49637     -7821.2249    
     27800   3150.3282     -844.02108      13962.519     -8260.6347      439.38162     -7821.253     
     27900   3165.5736      186.45449      13962.519     -8262.7901      441.50791     -7821.2822    
     28000   3066.5855     -6051.952       13962.519     -8248.9385      427.70188     -7821.2366    
     28100   3141.0813     -1012.5291      13962.519     -8259.3364      438.09194     -7821.2444    
     28200   3135.4391      1412.2779      13962.519     -8258.521       437.30501     -7821.216     
     28300   3213.31       -4763.142       13962.519     -8269.4359      448.1658      -7821.2701    
     28400   3067.0271     -724.97587      13962.519     -8249.0033      427.76347     -7821.2398    
     28500   3088.2034     -10335.315      13962.519     -8251.9243      430.71696     -7821.2073    
     28600   3198.0086     -12536.807      13962.519     -8267.2622      446.03168     -7821.2305    
     28700   3053.5115     -1656.7157      13962.519     -8247.0906      425.87842     -7821.2122    
     28800   3154.6722     -1836.3851      13962.519     -8261.2352      439.98748     -7821.2477    
     28900   3067.1934     -868.67614      13962.519     -8248.997       427.78666     -7821.2103    
     29000   3098.0381     -7481.504       13962.519     -8253.2878      432.08863     -7821.1992    
     29100   3090.4497     -7548.6949      13962.519     -8252.2734      431.03026     -7821.2432    
     29200   3190.3062     -5824.5954      13962.519     -8266.2092      444.95742     -7821.2518    
     29300   3111.4213     -1765.3327      13962.519     -8255.1679      433.95521     -7821.2127    
     29400   3143.9275     -1821.68        13962.519     -8259.7443      438.48891     -7821.2554    
     29500   3200.1619     -3722.3628      13962.519     -8267.6038      446.33202     -7821.2718    
     29600   3171.8077     -2312.1498      13962.519     -8263.6352      442.3774      -7821.2579    
     29700   3186.4809     -7138.5296      13962.519     -8265.654       444.42389     -7821.2301    
     29800   3083.228      -1080.9021      13962.519     -8251.2282      430.02305     -7821.2052    
     29900   3097.5489      568.24437      13962.519     -8253.2729      432.02039     -7821.2525    
     30000   3086.1087     -5272.8946      13962.519     -8251.6621      430.42482     -7821.2373    
     30100   3054.7399     -4349.5235      13962.519     -8247.2372      426.04975     -7821.1874    
     30200   3101.7352     -1390.5043      13962.519     -8253.8367      432.60427     -7821.2325    
     30300   3202.3179     -5061.4849      13962.519     -8267.8944      446.6327      -7821.2617    
     30400   2969.5962     -4910.288       13962.519     -8235.3705      414.17462     -7821.1959    
     30500   3010.2378     -5626.707       13962.519     -8241.0534      419.84298     -7821.2104    
     30600   3100.1801     -173.42684      13962.519     -8253.6564      432.38737     -7821.269     
     30700   3061.9422     -5142.394       13962.519     -8248.3037      427.05428     -7821.2494    
     30800   3224.534      -2105.6794      13962.519     -8270.9659      449.73123     -7821.2346    
     30900   3001.8908      4419.9208      13962.519     -8239.875       418.6788      -7821.1962    
     31000   3093.4223     -2173.4486      13962.519     -8252.6577      431.44486     -7821.2128    
     31100   2992.2631      6751.8736      13962.519     -8238.5601      417.33602     -7821.2241    
     31200   3107.9025     -4139.6404      13962.519     -8254.728       433.46443     -7821.2636    
     31300   3019.2846      2693.1828      13962.519     -8242.3512      421.10475     -7821.2464    
     31400   3070.0247     -3871.8047      13962.519     -8249.3877      428.18156     -7821.2062    
     31500   2989.1807      2303.3473      13962.519     -8238.1542      416.9061      -7821.2481    
     31600   3159.4712      3114.7031      13962.519     -8261.904       440.6568      -7821.2472    
     31700   3037.4855     -6561.7222      13962.519     -8244.8464      423.64326     -7821.2031    
     31800   3100.148      -4461.312       13962.519     -8253.6055      432.38289     -7821.2226    
     31900   3058.6872     -78.122148      13962.519     -8247.8197      426.60029     -7821.2194    
     32000   3144.0709     -1309.4755      13962.519     -8259.7298      438.50891     -7821.2209    
     32100   3088.3513      1714.6461      13962.519     -8251.9594      430.7376      -7821.2218    
     32200   3053.8737     -9814.8121      13962.519     -8247.1272      425.92894     -7821.1983    
     32300   3096.1676     -3763.4918      13962.519     -8253.0711      431.82775     -7821.2434    
     32400   3124.5513     -4434.9706      13962.519     -8257.0132      435.78647     -7821.2268    
     32500   3108.65       -6582.6943      13962.519     -8254.775       433.56869     -7821.2063    
     32600   3048.9116     -2438.3213      13962.519     -8246.4567      425.23687     -7821.2199    
     32700   3060.8755     -2543.9052      13962.519     -8248.1025      426.90549     -7821.197     
     32800   3002.533      -1071.2539      13962.519     -8239.9792      418.76837     -7821.2108    
     32900   3061.5215     -7516.4614      13962.519     -8248.2208      426.99559     -7821.2252    
     33000   3069.0338     -5963.4756      13962.519     -8249.2524      428.04335     -7821.209     
     33100   3149.0294     -8025.726       13962.519     -8260.4371      439.20047     -7821.2366    
     33200   3128.5011     -4911.4667      13962.519     -8257.5707      436.33736     -7821.2333    
     33300   2972.0244     -3601.2071      13962.519     -8235.7005      414.51328     -7821.1872    
     33400   3116.9878     -10119.293      13962.519     -8255.9488      434.73157     -7821.2173    
     33500   3010.0967     -9652.0882      13962.519     -8241.0106      419.8233      -7821.1873    
     33600   3053.4645     -10346.646      13962.519     -8247.0596      425.87188     -7821.1877    
     33700   3065.9546      7749.6165      13962.519     -8248.8443      427.61389     -7821.2304    
     33800   3032.614       1307.4114      13962.519     -8244.1509      422.96382     -7821.1871    
     33900   2973.1627     -3685.0043      13962.519     -8235.8627      414.67205     -7821.1907    
     34000   3151.4551     -5875.4434      13962.519     -8260.7821      439.53879     -7821.2433    
     34100   3127.4871     -3404.0491      13962.519     -8257.384       436.19593     -7821.1881    
     34200   3158.6806     -2303.4716      13962.519     -8261.7217      440.54654     -7821.1751    
     34300   3080.4381     -3932.812       13962.519     -8250.8325      429.63393     -7821.1986    
     34400   3115.8509     -2893.132       13962.519     -8255.763       434.57302     -7821.19      
     34500   3171.6452     -4908.5524      13962.519     -8263.5738      442.35474     -7821.219     
     34600   3039.6652      10453.305      13962.519     -8245.1125      423.94727     -7821.1653    
     34700   3091.5695      535.54615      13962.519     -8252.3573      431.18644     -7821.1709    
     34800   3154.4582      7376.3208      13962.519     -8261.1356      439.95763     -7821.1779    
     34900   3088.4974     -6269.8719      13962.519     -8251.9614      430.75798     -7821.2034    
     35000   3044.9789      2559.9334      13962.519     -8245.8577      424.68837     -7821.1693    
     35100   3068.9758     -5007.904       13962.519     -8249.2588      428.03526     -7821.2236    
     35200   3005.0036     -826.7606       13962.519     -8240.3241      419.11294     -7821.2111    
     35300   3137.2244     -2835.2964      13962.519     -8258.7666      437.55401     -7821.2126    
     35400   2997.052      -666.0983       13962.519     -8239.176       418.00393     -7821.1721    
     35500   3080.8701     -3419.4992      13962.519     -8250.8824      429.69417     -7821.1883    
     35600   2973.0435      6407.7112      13962.519     -8235.8499      414.65543     -7821.1944    
     35700   3067.156       3615.6875      13962.519     -8248.9656      427.78145     -7821.1841    
     35800   3040.6823      3435.2442      13962.519     -8245.3184      424.08912     -7821.2293    
     35900   3017.5965     -3253.1363      13962.519     -8242.0199      420.86931     -7821.1506    
     36000   3106.6198      930.67317      13962.519     -8254.5256      433.28554     -7821.2401    
     36100   3175.974       2501.3563      13962.519     -8264.1658      442.95848     -7821.2073    
     36200   3024.9426     -2011.9359      13962.519     -8243.0793      421.89388     -7821.1854    
     36300   3087.1761     -7452.1059      13962.519     -8251.7366      430.57369     -7821.163     
     36400   3118.6101     -6730.0182      13962.519     -8256.1651      434.95785     -7821.2073    
     36500   3083.8273      9696.7637      13962.519     -8251.2807      430.10662     -7821.174     
     36600   3018.2666      2670.5526      13962.519     -8242.123       420.96277     -7821.1602    
     36700   3119.7762     -4628.2423      13962.519     -8256.3183      435.12047     -7821.1978    
     36800   3114.6442     -8623.846       13962.519     -8255.6058      434.4047      -7821.2011    
     36900   3092.8118     -5167.9673      13962.519     -8252.5795      431.3597      -7821.2198    
     37000   3158.5398     -3553.8546      13962.519     -8261.7605      440.52691     -7821.2335    
     37100   3113.3635     -1018.6775      13962.519     -8255.4062      434.22609     -7821.1801    
     37200   3129.9277     -6167.4621      13962.519     -8257.7459      436.53633     -7821.2096    
     37300   3061.0508     -3166.1262      13962.519     -8248.0993      426.92994     -7821.1693    
     37400   3104.7099     -6296.8305      13962.519     -8254.1849      433.01916     -7821.1658    
     37500   3198.9688     -3605.3799      13962.519     -8267.3647      446.1656      -7821.1991    
     37600   3183.0526     -3509.4612      13962.519     -8265.1721      443.94574     -7821.2264    
     37700   3168.5811     -13137.976      13962.519     -8263.133       441.92739     -7821.2056    
     37800   3045.3016     -7923.9024      13962.519     -8245.8988      424.73338     -7821.1655    
     37900   3085.5986     -2768.1453      13962.519     -8251.5511      430.35367     -7821.1975    
     38000   3092.6727     -8687.7522      13962.519     -8252.5148      431.3403      -7821.1745    
     38100   3057.5964     -1269.0492      13962.519     -8247.6683      426.44816     -7821.2201    
     38200   3165.5426     -4399.2242      13962.519     -8262.711       441.50359     -7821.2074    
     38300   3211.7214     -3909.7331      13962.519     -8269.1804      447.94423     -7821.2362    
     38400   3062.5448     -6917.9         13962.519     -8248.3315      427.13831     -7821.1932    
     38500   3137.8548     -8288.8719      13962.519     -8258.8732      437.64194     -7821.2313    
     38600   3076.6897     -9307.5406      13962.519     -8250.316       429.11114     -7821.2049    
     38700   3002.1805     -1095.9072      13962.519     -8239.9152      418.71921     -7821.196     
     38800   3129.0867     -4656.4622      13962.519     -8257.5952      436.41903     -7821.1762    
     38900   3092.7413     -8008.7106      13962.519     -8252.5194      431.34987     -7821.1695    
     39000   3041.7502      2843.5518      13962.519     -8245.4182      424.23807     -7821.1801    
     39100   3048.1943     -1740.3935      13962.519     -8246.3023      425.13683     -7821.1654    
     39200   3075.7027     -1632.6157      13962.519     -8250.1608      428.97347     -7821.1874    
     39300   3128.669       6518.7999      13962.519     -8257.5655      436.36077     -7821.2047    
     39400   3075.4436     -1995.2525      13962.519     -8250.1558      428.93734     -7821.2185    
     39500   3096.8989     -3779.8957      13962.519     -8253.1553      431.92974     -7821.2256    
     39600   3123.1655     -45.192338      13962.519     -8256.7693      435.59319     -7821.1761    
     39700   3172.7901     -5137.9979      13962.519     -8263.7254      442.51442     -7821.211     
     39800   3186.5007      2604.8154      13962.519     -8265.6532      444.42666     -7821.2265    
     39900   3092.985      -9559.6966      13962.519     -8252.5868      431.38386     -7821.203     
     40000   3145.2671     -4828.5447      13962.519     -8259.8792      438.67574     -7821.2035    
     40100   3048.4469     -3629.9163      13962.519     -8246.3806      425.17206     -7821.2085    
     40200   3012.9863      677.83093      13962.519     -8241.3821      420.22631     -7821.1558    
     40300   3119.6214     -907.43007      13962.519     -8256.3075      435.0989      -7821.2086    
     40400   3148.0259     -4544.3298      13962.519     -8260.2637      439.06051     -7821.2032    
     40500   3087.5323      1453.7124      13962.519     -8251.8013      430.62337     -7821.1779    
     40600   3139.2413      1408.4203      13962.519     -8259.1066      437.83532     -7821.2713    
     40700   3194.5327      63.486611      13962.519     -8266.7533      445.5469      -7821.2064    
     40800   3146.2946     -10351.848      13962.519     -8260.0201      438.81905     -7821.2011    
     40900   3114.8905     -1964.9291      13962.519     -8255.6066      434.43907     -7821.1676    
     41000   3100.7357      1721.8293      13962.519     -8253.675       432.46487     -7821.2101    
     41100   3124.6204     -4294.6542      13962.519     -8256.9911      435.7961      -7821.195     
     41200   3127.8176     -5448.7098      13962.519     -8257.449       436.24203     -7821.2069    
     41300   3128.226       3914.3634      13962.519     -8257.4839      436.29898     -7821.1849    
     41400   3066.3423      3034.9335      13962.519     -8248.8462      427.66796     -7821.1782    
     41500   3091.6937      5217.9989      13962.519     -8252.4212      431.20377     -7821.2174    
     41600   3150.2228     -1327.3571      13962.519     -8260.5743      439.36692     -7821.2074    
     41700   3017.2801     -1229.8822      13962.519     -8241.9891      420.82517     -7821.1639    
     41800   3078.3548     -5425.512       13962.519     -8250.5296      429.34336     -7821.1862    
     41900   3147.3637     -8737.7716      13962.519     -8260.1328      438.96815     -7821.1647    
     42000   3044.6344     -3756.7352      13962.519     -8245.8056      424.64033     -7821.1652    
     42100   3039.5757     -1578.9545      13962.519     -8245.1101      423.93478     -7821.1754    
     42200   3129.0358     -8576.7391      13962.519     -8257.6209      436.41193     -7821.209     
     42300   3088.148      -5734.2553      13962.519     -8251.9349      430.70924     -7821.2257    
     42400   3077.2316     -3808.1594      13962.519     -8250.4167      429.18672     -7821.2299    
     42500   3057.9048     -12227.752      13962.519     -8247.7075      426.49116     -7821.2163    
     42600   3075.2684     -6135.8881      13962.519     -8250.0966      428.9129      -7821.1837    
     42700   3143.644      -2879.5438      13962.519     -8259.6686      438.44937     -7821.2193    
     42800   3126.3061     -11164.979      13962.519     -8257.2315      436.03122     -7821.2003    
     42900   3134.5255     -8911.2586      13962.519     -8258.3938      437.17758     -7821.2162    
     43000   3087.8572     -3901.4893      13962.519     -8251.8603      430.66869     -7821.1916    
     43100   3044.4001      1184.7774      13962.519     -8245.8105      424.60765     -7821.2029    
     43200   3142.3134     -4960.5849      13962.519     -8259.4764      438.26378     -7821.2127    
     43300   3153.131      -325.55779      13962.519     -8260.9854      439.77253     -7821.2129    
     43400   3083.7824      3889.2602      13962.519     -8251.2952      430.10036     -7821.1948    
     43500   3237.8014      524.83033      13962.519     -8272.8719      451.58166     -7821.2902    
     43600   3137.439       3539.1686      13962.519     -8258.8169      437.58394     -7821.233     
     43700   2990.893       4256.2459      13962.519     -8238.3275      417.14492     -7821.1826    
     43800   3105.6172      992.24538      13962.519     -8254.352       433.1457      -7821.2063    
     43900   3050.1701     -4110.6056      13962.519     -8246.6032      425.4124      -7821.1908    
     44000   3029.2784     -3765.2198      13962.519     -8243.681       422.49859     -7821.1824    
     44100   3080.9444     -8749.9842      13962.519     -8250.8937      429.70454     -7821.1891    
     44200   3001.4723      5429.979       13962.519     -8239.8164      418.62043     -7821.196     
     44300   3150.3306     -8520.138       13962.519     -8260.5974      439.38195     -7821.2154    
     44400   3099.2949     -2229.5312      13962.519     -8253.4856      432.26392     -7821.2216    
     44500   3084.8528     -4501.3277      13962.519     -8251.4781      430.24965     -7821.2284    
     44600   2996.501      -2799.5816      13962.519     -8239.1176      417.92708     -7821.1905    
     44700   3144.3288     -785.26482      13962.519     -8259.8035      438.54487     -7821.2587    
     44800   3161.6096      319.55961      13962.519     -8262.2036      440.95505     -7821.2485    
     44900   3182.891       1109.1224      13962.519     -8265.1566      443.92321     -7821.2334    
     45000   3107.5836      3849.1545      13962.519     -8254.6708      433.41995     -7821.2508    
     45100   3181.8865     -2613.3745      13962.519     -8265.0061      443.78311     -7821.223     
     45200   3125.9116     -9253.9778      13962.519     -8257.2016      435.97619     -7821.2254    
     45300   3094.9917     -1154.4523      13962.519     -8252.8967      431.66374     -7821.233     
     45400   3141.8088     -5422.3644      13962.519     -8259.4599      438.1934      -7821.2665    
     45500   3099.9711      1597.0729      13962.519     -8253.6117      432.35822     -7821.2535    
     45600   3058.0474     -201.61078      13962.519     -8247.7972      426.51105     -7821.2861    
     45700   3266.3069      1596.3157      13962.519     -8276.901       455.55737     -7821.3437    
     45800   3097.4626     -2080.9298      13962.519     -8253.2852      432.00836     -7821.2769    
     45900   3038.8854     -245.66262      13962.519     -8245.0843      423.8385      -7821.2458    
     46000   3165.7315     -7542.0292      13962.519     -8262.7804      441.52995     -7821.2505    
     46100   3207.2254     -8316.5136      13962.519     -8268.5832      447.31716     -7821.266     
     46200   3127.392      -5165.4293      13962.519     -8257.4161      436.18266     -7821.2334    
     46300   3213.4473     -9599.5222      13962.519     -8269.4222      448.18495     -7821.2372    
     46400   3122.0511     -14817.645      13962.519     -8256.6795      435.43777     -7821.2417    
     46500   3156.7423     -4744.1887      13962.519     -8261.5079      440.2762      -7821.2317    
     46600   3213.9824     -125.32383      13962.519     -8269.5375      448.25958     -7821.2779    
     46700   3178.9434     -9551.3068      13962.519     -8264.6442      443.37263     -7821.2716    
     46800   3180.6641     -3210.3006      13962.519     -8264.8568      443.61262     -7821.2442    
     46900   3185.7303     -2207.9716      13962.519     -8265.5881      444.31921     -7821.2689    
     47000   3288.6711     -12608.973      13962.519     -8279.9756      458.67654     -7821.2991    
     47100   3181.1476      3927.5822      13962.519     -8264.9601      443.68005     -7821.2801    
     47200   3194.1136     -597.49467      13962.519     -8266.783       445.48844     -7821.2946    
     47300   3103.2826      25.952634      13962.519     -8254.089       432.8201      -7821.2689    
     47400   3130.7298     -1556.8072      13962.519     -8257.9171      436.6482      -7821.2689    
     47500   3151.3889     -5826.506       13962.519     -8260.7747      439.52955     -7821.2451    
     47600   3115.0492     -10803.855      13962.519     -8255.7071      434.4612      -7821.2459    
     47700   3072.6158     -5476.5898      13962.519     -8249.767       428.54293     -7821.2241    
     47800   3089.5688     -289.42709      13962.519     -8252.1512      430.9074      -7821.2438    
     47900   3154.6757      625.68541      13962.519     -8261.2351      439.98798     -7821.2472    
     48000   3166.0231     -2970.2501      13962.519     -8262.832       441.57061     -7821.2614    
     48100   3081.634       2212.5452      13962.519     -8251.029       429.80072     -7821.2283    
     48200   3071.3392     -162.78251      13962.519     -8249.5998      428.36488     -7821.2349    
     48300   3123.968      -8544.9616      13962.519     -8256.9262      435.70511     -7821.2211    
     48400   2989.4167      4627.1354      13962.519     -8238.1855      416.93902     -7821.2465    
     48500   3165.9407     -4961.9964      13962.519     -8262.7913      441.55913     -7821.2322    
     48600   3027.3107     -6549.9942      13962.519     -8243.4223      422.22416     -7821.1982    
     48700   3081.4451     -7543.3143      13962.519     -8251.0102      429.77438     -7821.2358    
     48800   3108.8037     -7848.2874      13962.519     -8254.8214      433.59013     -7821.2313    
     48900   3090.6818      7249.492       13962.519     -8252.3065      431.06264     -7821.2438    
     49000   3034.5397     -778.19745      13962.519     -8244.4451      423.23241     -7821.2127    
     49100   3058.5605      2981.1672      13962.519     -8247.7805      426.58262     -7821.1979    
     49200   3112.0915     -9131.9448      13962.519     -8255.2831      434.04868     -7821.2344    
     49300   3173.2628     -1903.6278      13962.519     -8263.8062      442.58034     -7821.2259    
     49400   3111.5983     -2363.8314      13962.519     -8255.1944      433.97989     -7821.2145    
     49500   3123.136      -10521.725      13962.519     -8256.8184      435.58908     -7821.2294    
     49600   3069.4575      514.50372      13962.519     -8249.342       428.10245     -7821.2395    
     49700   3075.899       2000.9293      13962.519     -8250.2406      429.00086     -7821.2398    
     49800   3103.1743      158.47482      13962.519     -8254.0188      432.80498     -7821.2138    
     49900   3012.2409      847.80885      13962.519     -8241.3213      420.12234     -7821.199     
     50000   3046.0921     -1179.8732      13962.519     -8246.0673      424.84363     -7821.2237    
     50100   3066.9314      2631.4911      13962.519     -8248.9751      427.75012     -7821.2249    
     50200   2964.8935      2706.3557      13962.519     -8234.7223      413.51873     -7821.2035    
     50300   2982.0085     -973.77019      13962.519     -8237.1235      415.90578     -7821.2177    
     50400   3021.6211      1346.4476      13962.519     -8242.6115      421.43062     -7821.1809    
     50500   3031.4119      2236.6157      13962.519     -8244.03        422.79616     -7821.2338    
     50600   3011.2126     -634.09413      13962.519     -8241.194       419.97893     -7821.2151    
     50700   3010.0288      2482.599       13962.519     -8241.0149      419.81382     -7821.2011    
     50800   3044.835       7447.0981      13962.519     -8245.8976      424.66831     -7821.2293    
     50900   2955.4915      9763.8057      13962.519     -8233.4167      412.20742     -7821.2093    
     51000   3041.8963      12334.215      13962.519     -8245.4746      424.25843     -7821.2162    
     51100   3063.2043      742.43209      13962.519     -8248.4397      427.23029     -7821.2094    
     51200   3121.5307     -4738.9919      13962.519     -8256.5979      435.36518     -7821.2327    
     51300   2983.071       5428.1217      13962.519     -8237.242       416.05397     -7821.188     
     51400   3120.973      -8592.715       13962.519     -8256.5027      435.2874      -7821.2153    
     51500   3075.7705     -2671.2041      13962.519     -8250.1822      428.98294     -7821.1993    
     51600   3025.3067     -5626.5191      13962.519     -8243.1449      421.94465     -7821.2002    
     51700   3069.4251      1029.5783      13962.519     -8249.3149      428.09793     -7821.217     
     51800   3136.9461      6814.8008      13962.519     -8258.757       437.5152      -7821.2418    
     51900   3012.0843      10511.75       13962.519     -8241.3198      420.10051     -7821.2193    
     52000   3134.9871      10.97378       13962.519     -8258.5189      437.24197     -7821.2769    
     52100   3124.8553     -4302.0296      13962.519     -8257.0732      435.82887     -7821.2443    
     52200   3019.4799      2860.5811      13962.519     -8242.3395      421.13199     -7821.2075    
     52300   3045.7779      4908.3049      13962.519     -8245.9986      424.79981     -7821.1988    
     52400   3101.3881     -10081.201      13962.519     -8253.7767      432.55586     -7821.2208    
     52500   3053.9208     -2921.4807      13962.519     -8247.1538      425.93552     -7821.2183    
     52600   2985.4231     -6517.7717      13962.519     -8237.6175      416.38203     -7821.2355    
     52700   3170.119       5059.5349      13962.519     -8263.3851      442.14187     -7821.2432    
     52800   2998.4958      383.418        13962.519     -8239.4388      418.2053      -7821.2335    
     52900   3162.176       2776.857       13962.519     -8262.2488      441.03405     -7821.2148    
     53000   3080.2307     -4754.7041      13962.519     -8250.811       429.60501     -7821.206     
     53100   3078.9081      6460.2782      13962.519     -8250.6354      429.42054     -7821.2149    
     53200   3202.0599      2410.6889      13962.519     -8267.8427      446.59672     -7821.2459    
     53300   3150.7481     -7932.4575      13962.519     -8260.6561      439.44018     -7821.2159    
     53400   3005.2115     -2820.6473      13962.519     -8240.3589      419.14195     -7821.217     
     53500   3071.8793     -4574.9888      13962.519     -8249.6521      428.44022     -7821.2119    
     53600   3041.3387     -2431.3363      13962.519     -8245.4082      424.18067     -7821.2276    
     53700   3051.2657     -2828.7803      13962.519     -8246.774       425.56521     -7821.2088    
     53800   3094.3247     -570.5984       13962.519     -8252.7897      431.57071     -7821.219     
     53900   3102.7514     -3613.8057      13962.519     -8253.9884      432.746       -7821.2424    
     54000   3110.2767     -883.41575      13962.519     -8255.0708      433.79557     -7821.2753    
     54100   3141.695      -6117.7483      13962.519     -8259.4233      438.17753     -7821.2458    
     54200   3194.3513     -7685.5345      13962.519     -8266.7922      445.52159     -7821.2706    
     54300   2984.7386      8252.3466      13962.519     -8237.5154      416.28656     -7821.2288    
     54400   3128.54       -2233.4633      13962.519     -8257.5963      436.34279     -7821.2535    
     54500   3153.344       6526.9502      13962.519     -8261.0488      439.80224     -7821.2465    
     54600   3165.6016     -2064.4609      13962.519     -8262.7204      441.51183     -7821.2085    
     54700   3095.5031     -5969.5667      13962.519     -8252.9857      431.73507     -7821.2506    
     54800   3148.8578     -2857.4903      13962.519     -8260.4295      439.17654     -7821.2529    
     54900   3063.5954     -2904.0428      13962.519     -8248.4834      427.28485     -7821.1985    
     55000   3146.0623     -4224.7134      13962.519     -8260.0177      438.78665     -7821.2311    
     55100   3103.6664     -8877.134       13962.519     -8254.1346      432.87361     -7821.261     
     55200   3097.5072     -2131.5503      13962.519     -8253.2583      432.01459     -7821.2437    
     55300   3262.3389     -9920.6505      13962.519     -8276.2673      455.00394     -7821.2633    
     55400   3136.7413      1229.6696      13962.519     -8258.7712      437.48662     -7821.2845    
     55500   3104.5428     -13877.189      13962.519     -8254.2604      432.99585     -7821.2646    
     55600   3173.7801     -5431.4093      13962.519     -8263.9023      442.65249     -7821.2498    
     55700   2998.5345     -565.18036      13962.519     -8239.4338      418.2107      -7821.2231    
     55800   3073.3739     -2733.9217      13962.519     -8249.8688      428.64866     -7821.2201    
     55900   3020.6925      2110.163       13962.519     -8242.528       421.30111     -7821.2269    
     56000   3034.3193     -2121.9529      13962.519     -8244.4401      423.20165     -7821.2384    
     56100   3217.8345     -1538.5489      13962.519     -8270.0604      448.79683     -7821.2635    
     56200   3098.9127     -2868.1306      13962.519     -8253.4499      432.21061     -7821.2393    
     56300   3175.5942     -12498.502      13962.519     -8264.1597      442.90551     -7821.2542    
     56400   3079.8656     -5446.9008      13962.519     -8250.7853      429.55407     -7821.2312    
     56500   3018.172      -2838.8024      13962.519     -8242.1429      420.94956     -7821.1933    
     56600   3155.711      -10266.325      13962.519     -8261.3708      440.13237     -7821.2384    
     56700   2996.7113      5648.5239      13962.519     -8239.1604      417.9564      -7821.204     
     56800   3094.3935     -2503.575       13962.519     -8252.8249      431.58032     -7821.2446    
     56900   3119.8862     -5876.6995      13962.519     -8256.4232      435.13581     -7821.2874    
     57000   3139.5559      2224.1314      13962.519     -8259.1526      437.87919     -7821.2734    
     57100   3150.9697     -7525.0077      13962.519     -8260.7246      439.47109     -7821.2535    
     57200   3149.8624      483.0031       13962.519     -8260.5547      439.31665     -7821.2381    
     57300   3112.2907     -5521.4748      13962.519     -8255.337       434.07647     -7821.2606    
     57400   3121.8577      246.18075      13962.519     -8256.6342      435.41079     -7821.2234    
     57500   3139.204      -8659.4655      13962.519     -8259.0803      437.83011     -7821.2502    
     57600   3189.4213     -13308.968      13962.519     -8266.0938      444.83401     -7821.2597    
     57700   3122.7098     -1261.2912      13962.519     -8256.7796      435.52963     -7821.2499    
     57800   3144.4917     -5986.5123      13962.519     -8259.8167      438.56759     -7821.2491    
     57900   3113.117      -1532.7741      13962.519     -8255.4675      434.1917      -7821.2758    
     58000   3173.6575     -5018.7782      13962.519     -8263.9044      442.63539     -7821.269     
     58100   3275.4674     -2258.6187      13962.519     -8278.1359      456.83499     -7821.3009    
     58200   3308.8844     -2083.9167      13962.519     -8282.7896      461.49572     -7821.2938    
     58300   3055.9918      935.70058      13962.519     -8247.4575      426.22436     -7821.2332    
     58400   3152.878       834.94018      13962.519     -8260.9644      439.73724     -7821.2271    
     58500   3170.2434     -5844.6033      13962.519     -8263.406       442.15923     -7821.2467    
     58600   3188.0722     -5121.9846      13962.519     -8265.9312      444.64584     -7821.2853    
     58700   3157.0238     -292.66458      13962.519     -8261.6151      440.31547     -7821.2997    
     58800   3104.6189      278.28236      13962.519     -8254.2524      433.00646     -7821.2459    
     58900   3132.9791      1245.1815      13962.519     -8258.2109      436.96191     -7821.249     
     59000   3095.5042      766.97327      13962.519     -8253.0031      431.73523     -7821.2678    
     59100   3315.8433     -3904.7332      13962.519     -8283.766       462.46629     -7821.2997    
     59200   3136.4973     -5206.3887      13962.519     -8258.7154      437.4526      -7821.2628    
     59300   3142.1665     -11555.199      13962.519     -8259.5492      438.24329     -7821.3059    
     59400   3245.122      -9269.868       13962.519     -8273.8854      452.60267     -7821.2828    
     59500   3202.5975     -10550.378      13962.519     -8267.9513      446.67171     -7821.2796    
     59600   3094.5912     -11177.441      13962.519     -8252.88        431.60788     -7821.2722    
     59700   3100.4998     -663.88838      13962.519     -8253.7362      432.43197     -7821.3042    
     59800   3253.3482     -10586.079      13962.519     -8275.0611      453.75        -7821.3111    
     59900   3155.0852     -8061.283       13962.519     -8261.2633      440.04509     -7821.2182    
     60000   3149.6313     -2892.4977      13962.519     -8260.5439      439.28442     -7821.2595    
     60100   3284.3398     -13049.969      13962.519     -8279.3463      458.07244     -7821.2738    
     60200   3210.8287     -6293.1272      13962.519     -8269.0839      447.81973     -7821.2641    
     60300   3093.024       6292.6072      13962.519     -8252.6738      431.38931     -7821.2845    
     60400   3188.4594     -7954.5648      13962.519     -8266.0079      444.69985     -7821.3081    
     60500   3191.8545     -10977.468      13962.519     -8266.4818      445.17337     -7821.3084    
     60600   3188.2597     -3418.4091      13962.519     -8265.9111      444.67199     -7821.2392    
     60700   3225.1569     -9307.9394      13962.519     -8271.1309      449.8181      -7821.3128    
     60800   3296.4289     -13010.317      13962.519     -8281.0643      459.75853     -7821.3058    
     60900   3194.7702     -4133.3791      13962.519     -8266.8197      445.58002     -7821.2397    
     61000   3105.6696     -3517.525       13962.519     -8254.3887      433.15301     -7821.2357    
     61100   3223.1144     -14125.353      13962.519     -8270.8021      449.53323     -7821.2689    
     61200   3158.6639     -15498.633      13962.519     -8261.8353      440.54421     -7821.2911    
     61300   3194.5658     -17596.45       13962.519     -8266.8192      445.55152     -7821.2677    
     61400   3166.6515     -14938.879      13962.519     -8262.9442      441.65826     -7821.2859    
     61500   3205.0011     -9297.9399      13962.519     -8268.304       447.00693     -7821.2971    
     61600   3189.6236     -8835.1217      13962.519     -8266.1062      444.86221     -7821.244     
     61700   3220.3077     -7889.094       13962.519     -8270.4377      449.14178     -7821.2959    
     61800   3249.908      -2551.1253      13962.519     -8274.564       453.27018     -7821.2938    
     61900   3234.5058     -2832.7583      13962.519     -8272.4223      451.12201     -7821.3003    
     62000   3136.7784     -4195.6462      13962.519     -8258.8024      437.4918      -7821.3106    
     62100   3186.2249     -5191.8373      13962.519     -8265.6698      444.38819     -7821.2816    
     62200   3313.7697     -6871.0989      13962.519     -8283.4978      462.17709     -7821.3207    
     62300   3235.3482     -4872.3989      13962.519     -8272.5418      451.2395      -7821.3023    
     62400   3194.334      -3349.2986      13962.519     -8266.8146      445.51918     -7821.2955    
     62500   3249.6543     -998.9292       13962.519     -8274.5946      453.23479     -7821.3598    
     62600   3177.3089     -1752.3349      13962.519     -8264.4341      443.14467     -7821.2895    
     62700   3113.6156     -10212.245      13962.519     -8255.5212      434.26125     -7821.26      
     62800   3168.0834     -8425.4312      13962.519     -8263.1294      441.85796     -7821.2714    
     62900   3028.3625     -5307.1606      13962.519     -8243.6415      422.37086     -7821.2706    
     63000   3264.2542     -15669.811      13962.519     -8276.5738      455.27107     -7821.3028    
     63100   3115.8918     -8758.9965      13962.519     -8255.8465      434.57871     -7821.2678    
     63200   3076.1444      1633.9908      13962.519     -8250.3166      429.03508     -7821.2815    
     63300   3196.5466     -8877.8458      13962.519     -8267.1193      445.82777     -7821.2916    
     63400   3174.7511     -3757.8062      13962.519     -8264.0915      442.78792     -7821.3036    
     63500   3179.432      -11004.421      13962.519     -8264.7415      443.44078     -7821.3007    
     63600   3142.5585     -661.08201      13962.519     -8259.5908      438.29796     -7821.2928    
     63700   3220.7164     -1569.972       13962.519     -8270.5629      449.19877     -7821.3641    
     63800   3128.806      -380.45705      13962.519     -8257.6829      436.37988     -7821.303     
     63900   3170.2382     -6129.5783      13962.519     -8263.4474      442.15849     -7821.2889    
     64000   3155.0909     -3411.4736      13962.519     -8261.3753      440.04588     -7821.3294    
     64100   3062.6062      5220.7379      13962.519     -8248.4722      427.14688     -7821.3254    
     64200   3252.5523     -12611.532      13962.519     -8274.9832      453.63899     -7821.3442    
     64300   3174.2366     -9868.664       13962.519     -8264.0707      442.71616     -7821.3545    
     64400   3159.8069     -3772.7393      13962.519     -8262.0392      440.70364     -7821.3356    
     64500   3248.2586     -5009.4517      13962.519     -8274.3788      453.04014     -7821.3387    
     64600   3210.876       1813.0012      13962.519     -8269.1347      447.82632     -7821.3084    
     64700   3301.137      -9920.6643      13962.519     -8281.7344      460.41517     -7821.3192    
     64800   3106.2056     -906.51536      13962.519     -8254.5368      433.22777     -7821.309     
     64900   3197.1932      94.706753      13962.519     -8267.2515      445.91796     -7821.3336    
     65000   3118.3498     -13087.809      13962.519     -8256.2099      434.92154     -7821.2884    
     65100   3170.724      -10505.917      13962.519     -8263.5397      442.22626     -7821.3135    
     65200   3068.1586     -9959.4191      13962.519     -8249.2095      427.92129     -7821.2882    
     65300   3157.1336     -7610.5557      13962.519     -8261.6431      440.33079     -7821.3123    
     65400   3163.8141     -4470.2068      13962.519     -8262.5926      441.26251     -7821.3301    
     65500   3079.2962     -4519.1049      13962.519     -8250.7787      429.47467     -7821.304     
     65600   3178.4058     -6094.4993      13962.519     -8264.5953      443.29765     -7821.2977    
     65700   3098.9271     -10894.32       13962.519     -8253.5474      432.21263     -7821.3348    
     65800   3251.8519     -12808.557      13962.519     -8274.8398      453.5413      -7821.2985    
     65900   3123.4171     -6209.9096      13962.519     -8256.9788      435.62828     -7821.3506    
     66000   3191.2663     -9737.8627      13962.519     -8266.3814      445.09132     -7821.29      
     66100   3134.1189     -6306.7007      13962.519     -8258.4201      437.12088     -7821.2992    
     66200   3114.9112     -9343.3916      13962.519     -8255.7222      434.44194     -7821.2803    
     66300   3100.562      -4622.3127      13962.519     -8253.7333      432.44065     -7821.2926    
     66400   3104.2233     -4663.3438      13962.519     -8254.2645      432.95129     -7821.3132    
     66500   3106.5258     -1552.651       13962.519     -8254.5736      433.27242     -7821.3012    
     66600   3173.2985     -8886.478       13962.519     -8263.8622      442.58532     -7821.2769    
     66700   3112.8815     -3652.9533      13962.519     -8255.4224      434.15886     -7821.2636    
     66800   3150.0361     -1554.0848      13962.519     -8260.6382      439.34087     -7821.2973    
     66900   3292.6936     -3854.6706      13962.519     -8280.5846      459.23756     -7821.347     
     67000   3292.0949     -12013.247      13962.519     -8280.4877      459.15406     -7821.3336    
     67100   3221.6221     -4533.5953      13962.519     -8270.6055      449.3251      -7821.2804    
     67200   3177.5827     -11228.061      13962.519     -8264.5011      443.18285     -7821.3183    
     67300   3167.0778     -6678.0941      13962.519     -8263.0122      441.71772     -7821.2945    
     67400   3094.2201     -13713.888      13962.519     -8252.8245      431.55613     -7821.2684    
     67500   3153.4211     -14271.506      13962.519     -8261.0832      439.81298     -7821.2702    
     67600   3148.1375     -4705.8795      13962.519     -8260.383       439.07607     -7821.3069    
     67700   3171.8297     -6678.6451      13962.519     -8263.6966      442.38047     -7821.3162    
     67800   3126.9544     -10815.557      13962.519     -8257.3635      436.12163     -7821.2419    
     67900   3211.154      -10189.197      13962.519     -8269.1885      447.86509     -7821.3234    
     68000   3248.1675     -10698.067      13962.519     -8274.3186      453.02744     -7821.2911    
     68100   3231.7526     -6326.0833      13962.519     -8272.0117      450.73802     -7821.2737    
     68200   3241.5782     -10698.741      13962.519     -8273.3906      452.1084      -7821.2822    
     68300   3070.6802     -1955.7774      13962.519     -8249.4999      428.27297     -7821.2269    
     68400   3101.9081     -5175.3427      13962.519     -8253.8977      432.62839     -7821.2693    
     68500   3185.0204     -8035.9854      13962.519     -8265.4889      444.2202      -7821.2687    
     68600   3142.547      -2363.0127      13962.519     -8259.5754      438.29636     -7821.2791    
     68700   3179.6639     -6301.1675      13962.519     -8264.7496      443.47311     -7821.2765    
     68800   3147.3287     -3049.1376      13962.519     -8260.2502      438.96327     -7821.2869    
     68900   3212.8577     -3088.9782      13962.519     -8269.3677      448.10272     -7821.265     
     69000   3169.2155     -5006.5377      13962.519     -8263.3177      442.01586     -7821.3019    
     69100   3147.8305      878.19022      13962.519     -8260.2771      439.03326     -7821.2439    
     69200   3035.628      -4582.7391      13962.519     -8244.6647      423.38419     -7821.2806    
     69300   3179.8207     -8891.8507      13962.519     -8264.7697      443.49499     -7821.2747    
     69400   3141.6405     -2874.8861      13962.519     -8259.4407      438.16993     -7821.2708    
     69500   3135.1547     -9280.9505      13962.519     -8258.5178      437.26534     -7821.2524    
     69600   3179.0288     -7364.0744      13962.519     -8264.6765      443.38454     -7821.292     
     69700   3066.6947     -2205.9394      13962.519     -8249.0064      427.71711     -7821.2893    
     69800   3161.9995     -12646.834      13962.519     -8262.2825      441.00943     -7821.2731    
     69900   3190.1569     -7666.6142      13962.519     -8266.2508      444.9366      -7821.3142    
     70000   3084.9245     -6757.8879      13962.519     -8251.5538      430.25965     -7821.2942    
     70100   3099.5694      558.74338      13962.519     -8253.604       432.30221     -7821.3018    
     70200   3021.6813     -3553.7348      13962.519     -8242.6665      421.43902     -7821.2275    
     70300   3178.8299     -12415.79       13962.519     -8264.5951      443.35679     -7821.2383    
     70400   3122.0252      1434.8951      13962.519     -8256.7021      435.43415     -7821.268     
     70500   3159.9969     -7545.0921      13962.519     -8262.0304      440.73012     -7821.3002    
     70600   3168.8794     -3873.1895      13962.519     -8263.2822      441.96898     -7821.3132    
     70700   3130.9321     -1528.8326      13962.519     -8257.9346      436.67642     -7821.2581    
     70800   3151.4303     -4124.9394      13962.519     -8260.8624      439.53533     -7821.327     
     70900   3114.184      -1782.3949      13962.519     -8255.6248      434.34053     -7821.2843    
     71000   3213.0144     -7970.5202      13962.519     -8269.4474      448.12457     -7821.3228    
     71100   3206.5196     -9297.7172      13962.519     -8268.5071      447.21873     -7821.2884    
     71200   3110.058      -7496.3533      13962.519     -8255.0249      433.76506     -7821.2598    
     71300   3151.7078     -16255.041      13962.519     -8260.8352      439.57403     -7821.2611    
     71400   3123.3798     -6081.2813      13962.519     -8256.915       435.62308     -7821.292     
     71500   3098.9785     -7545.3925      13962.519     -8253.5078      432.21979     -7821.288     
     71600   3092.1935     -8583.0589      13962.519     -8252.5202      431.27348     -7821.2467    
     71700   3223.9884     -5973.9782      13962.519     -8270.9631      449.65513     -7821.308     
     71800   3196.8723     -222.33564      13962.519     -8267.1709      445.87321     -7821.2977    
     71900   3091.5299     -188.37818      13962.519     -8252.4728      431.18092     -7821.2919    
     72000   3174.5488     -10089.768      13962.519     -8264.0609      442.7597      -7821.3012    
     72100   3176.042      -8090.8221      13962.519     -8264.276       442.96797     -7821.308     
     72200   3109.2495     -1444.9932      13962.519     -8254.9103      433.6523      -7821.258     
     72300   3134.2511     -6090.5912      13962.519     -8258.4381      437.13932     -7821.2988    
     72400   3072.7279     -4526.3861      13962.519     -8249.8193      428.55858     -7821.2607    
     72500   3001.4149     -1476.632       13962.519     -8239.8487      418.61243     -7821.2362    
     72600   3164.6787     -9184.9113      13962.519     -8262.6639      441.3831      -7821.2808    
     72700   3183.0947     -11286.558      13962.519     -8265.2361      443.95162     -7821.2845    
     72800   3203.5802     -15324.598      13962.519     -8268.0847      446.80876     -7821.276     
     72900   3179.7666     -7133.7443      13962.519     -8264.7625      443.48745     -7821.275     
     73000   3145.7232     -10277.106      13962.519     -8260.038       438.73936     -7821.2986    
     73100   3269.2527     -9777.741       13962.519     -8277.2898      455.96822     -7821.3216    
     73200   3218.5669     -4809.8157      13962.519     -8270.2128      448.89899     -7821.3138    
     73300   3111.8163      2588.1444      13962.519     -8255.2844      434.0103      -7821.2741    
     73400   3169.5171     -3077.7368      13962.519     -8263.3255      442.05793     -7821.2676    
     73500   3120.1966     -10755.345      13962.519     -8256.4442      435.17911     -7821.2651    
     73600   3128.1728     -6393.5818      13962.519     -8257.5436      436.29157     -7821.252     
     73700   3189.4786     -9327.7788      13962.519     -8266.125       444.84199     -7821.283     
     73800   3154.3576     -10939.51       13962.519     -8261.196       439.9436      -7821.2524    
     73900   3137.6        -7075.1044      13962.519     -8258.8834      437.6064      -7821.277     
     74000   3062.5086     -3939.9986      13962.519     -8248.3813      427.13328     -7821.2481    
     74100   3068.2173      2947.9894      13962.519     -8249.185       427.92947     -7821.2556    
     74200   3077.7182      728.89915      13962.519     -8250.545       429.25458     -7821.2904    
     74300   3142.4132     -2954.1846      13962.519     -8259.5859      438.27769     -7821.3082    
     74400   3091.7468     -5798.3907      13962.519     -8252.4927      431.21118     -7821.2815    
     74500   3188.1691     -9590.8027      13962.519     -8265.9493      444.65936     -7821.2899    
     74600   3151.0773     -3269.8819      13962.519     -8260.7537      439.48609     -7821.2676    
     74700   3167.0755     -13492.445      13962.519     -8262.9794      441.71739     -7821.262     
     74800   3041.9529     -7512.2106      13962.519     -8245.5201      424.26633     -7821.2537    
     74900   3105.5043     -3103.061       13962.519     -8254.3846      433.12995     -7821.2546    
     75000   3182.0296     -2595.3553      13962.519     -8265.1262      443.80307     -7821.3232    
     75100   3194.7645     -759.34091      13962.519     -8266.8556      445.57923     -7821.2763    
     75200   3173.7217      2465.7171      13962.519     -8263.9602      442.64435     -7821.3158    
     75300   3043.2684     -10377.776      13962.519     -8245.7256      424.44981     -7821.2758    
     75400   3033.2954     -2110.2174      13962.519     -8244.3004      423.05886     -7821.2415    
     75500   3184.9472     -11137.237      13962.519     -8265.5048      444.20999     -7821.2948    
     75600   3113.8985     -4290.014       13962.519     -8255.5672      434.30071     -7821.2665    
     75700   3084.8515     -5906.3132      13962.519     -8251.5086      430.24948     -7821.2591    
     75800   3131.4783     -607.41478      13962.519     -8258.0587      436.75259     -7821.3061    
     75900   3164.4729     -6649.7819      13962.519     -8262.6372      441.35441     -7821.2828    
     76000   3003.6095      251.16258      13962.519     -8240.1879      418.91851     -7821.2694    
     76100   3089.2516     -3719.0724      13962.519     -8252.1323      430.86316     -7821.2692    
     76200   3131.3153      3403.2982      13962.519     -8258.0228      436.72986     -7821.293     
     76300   3102.8536     -818.48639      13962.519     -8254.0352      432.76026     -7821.2749    
     76400   3185.1403     -6924.2276      13962.519     -8265.5421      444.23692     -7821.3052    
     76500   3044.6019     -10690.551      13962.519     -8245.8821      424.6358      -7821.2463    
     76600   3102.5886     -5352.8228      13962.519     -8254.0056      432.72329     -7821.2823    
     76700   3104.7122     -308.04964      13962.519     -8254.3162      433.01948     -7821.2967    
     76800   3091.6187     -4925.4888      13962.519     -8252.4763      431.19331     -7821.283     
     76900   3091.3778     -7558.8159      13962.519     -8252.4333      431.15971     -7821.2736    
     77000   3137.4478     -728.20282      13962.519     -8258.9045      437.58517     -7821.3193    
     77100   3134.8476      3526.3232      13962.519     -8258.5212      437.22251     -7821.2987    
     77200   3201.4672      3977.9504      13962.519     -8267.8111      446.51406     -7821.2971    
     77300   3160.3563     -4495.885       13962.519     -8262.0828      440.78025     -7821.3026    
     77400   3019.3582      5221.4916      13962.519     -8242.383       421.11502     -7821.2679    
     77500   3205.2709     -10046.594      13962.519     -8268.324       447.04457     -7821.2794    
     77600   3058.1286     -1127.5287      13962.519     -8247.7829      426.52238     -7821.2605    
     77700   3061.4546     -9010.6074      13962.519     -8248.2727      426.98627     -7821.2864    
     77800   3128.1353     -3919.7489      13962.519     -8257.5693      436.28634     -7821.2829    
     77900   3108.0736      856.84668      13962.519     -8254.7511      433.48829     -7821.2628    
     78000   3207.577      -6299.8233      13962.519     -8268.6175      447.36621     -7821.2513    
     78100   3199.574      -4777.0243      13962.519     -8267.5162      446.25002     -7821.2662    
     78200   2994.7781     -9298.2808      13962.519     -8238.9133      417.68678     -7821.2265    
     78300   3100.7154     -3715.9048      13962.519     -8253.7296      432.46204     -7821.2675    
     78400   3137.1862     -3463.32        13962.519     -8258.8303      437.54869     -7821.2816    
     78500   3222.4723     -2120.1401      13962.519     -8270.7669      449.44369     -7821.3232    
     78600   3134.4476      4548.8867      13962.519     -8258.445       437.16672     -7821.2783    
     78700   3151.6269     -1573.3358      13962.519     -8260.8421      439.56275     -7821.2793    
     78800   3114.1416      3482.9718      13962.519     -8255.6323      434.33461     -7821.2977    
     78900   3055.3613      2928.5534      13962.519     -8247.4344      426.13642     -7821.298     
     79000   3078.913      -5927.4307      13962.519     -8250.7032      429.42121     -7821.282     
     79100   3097.2197     -8195.6835      13962.519     -8253.2584      431.97448     -7821.2839    
     79200   3155.777      -7565.0062      13962.519     -8261.4142      440.14157     -7821.2727    
     79300   3048.9297     -6560.1936      13962.519     -8246.5075      425.2394      -7821.2681    
     79400   3209.9031     -6242.54        13962.519     -8268.9553      447.69063     -7821.2647    
     79500   2996.947       3837.0996      13962.519     -8239.2792      417.98928     -7821.2899    
     79600   3058.5688      1410.4878      13962.519     -8247.8529      426.58377     -7821.2692    
     79700   3280.6706     -10684.064      13962.519     -8278.8764      457.5607      -7821.3157    
     79800   3055.756       13869.045      13962.519     -8247.493       426.19147     -7821.3015    
     79900   3157.2788      4194.7793      13962.519     -8261.6406      440.35103     -7821.2896    
     80000   3147.387      -7235.7215      13962.519     -8260.2208      438.9714      -7821.2494    
Loop time of 186.62 on 6 procs for 80000 steps with 1080 atoms

Performance: 37.038 ns/day, 0.648 hours/ns, 428.678 timesteps/s, 462.972 katom-step/s
99.8% CPU use with 6 MPI tasks x no OpenMP threads

MPI task timing breakdown:
Section |  min time  |  avg time  |  max time  |%varavg| %total
---------------------------------------------------------------
Pair    | 59.558     | 82.966     | 111.42     | 227.9 | 44.46
Kspace  | 64.14      | 93.432     | 117.58     | 221.6 | 50.07
Neigh   | 3.0629     | 3.7803     | 4.2916     |  24.1 |  2.03
Comm    | 2.4118     | 2.9045     | 3.3839     |  20.7 |  1.56
Output  | 0.19141    | 0.20872    | 0.2231     |   2.5 |  0.11
Modify  | 2.4709     | 2.7752     | 2.943      |   9.5 |  1.49
Other   |            | 0.5537     |            |       |  0.30

Nlocal:            180 ave         202 max         168 min
Histogram: 3 0 1 0 0 0 0 1 0 1
Nghost:        3848.33 ave        4007 max        3644 min
Histogram: 2 0 0 0 0 1 0 0 2 1
Neighs:        50444.3 ave       59576 max       44019 min
Histogram: 2 0 1 1 0 0 0 0 1 1

Total # of neighbors = 302666
Ave neighs/atom = 280.2463
Neighbor list builds = 3529
Dangerous builds = 0

unfix myNVT
Total wall time: 0:03:06
