(written by ASE)

500 atoms
1 atom types

0.0             19.36011529  xlo xhi
0.0      29.470526700000001  ylo yhi
0.0      29.206024169999999  zlo zhi

Masses

1 24.305000

Atoms # atomic

     1   1      1.9360115299999998     0.98235091999999991      1.4603012099999999
     2   1      1.9360115299999998     0.98235091999999991      7.3015060399999996
     3   1      1.9360115299999998     0.98235091999999991      13.142710879999999
     4   1      1.9360115299999998     0.98235091999999991      18.983915710000002
     5   1      1.9360115299999998     0.98235091999999991             24.82512054
     6   1      1.9360115299999998      6.8764562599999994      1.4603012099999999
     7   1      1.9360115299999998      6.8764562599999994      7.3015060399999996
     8   1      1.9360115299999998      6.8764562599999994      13.142710879999999
     9   1      1.9360115299999998      6.8764562599999994      18.983915710000002
    10   1      1.9360115299999998      6.8764562599999994             24.82512054
    11   1      1.9360115299999998      12.770561599999999      1.4603012099999999
    12   1      1.9360115299999998      12.770561599999999      7.3015060399999996
    13   1      1.9360115299999998      12.770561599999999      13.142710879999999
    14   1      1.9360115299999998      12.770561599999999      18.983915710000002
    15   1      1.9360115299999998      12.770561599999999             24.82512054
    16   1      1.9360115299999998      18.664666939999996      1.4603012099999999
    17   1      1.9360115299999998      18.664666939999996      7.3015060399999996
    18   1      1.9360115299999998      18.664666939999996      13.142710879999999
    19   1      1.9360115299999998      18.664666939999996      18.983915710000002
    20   1      1.9360115299999998      18.664666939999996             24.82512054
    21   1      1.9360115299999998      24.558772279999996      1.4603012099999999
    22   1      1.9360115299999998      24.558772279999996      7.3015060399999996
    23   1      1.9360115299999998      24.558772279999996      13.142710879999999
    24   1      1.9360115299999998      24.558772279999996      18.983915710000002
    25   1      1.9360115299999998      24.558772279999996             24.82512054
    26   1      5.8080345899999992     0.98235091999999991      1.4603012099999999
    27   1      5.8080345899999992     0.98235091999999991      7.3015060399999996
    28   1      5.8080345899999992     0.98235091999999991      13.142710879999999
    29   1      5.8080345899999992     0.98235091999999991      18.983915710000002
    30   1      5.8080345899999992     0.98235091999999991             24.82512054
    31   1      5.8080345899999992      6.8764562599999994      1.4603012099999999
    32   1      5.8080345899999992      6.8764562599999994      7.3015060399999996
    33   1      5.8080345899999992      6.8764562599999994      13.142710879999999
    34   1      5.8080345899999992      6.8764562599999994      18.983915710000002
    35   1      5.8080345899999992      6.8764562599999994             24.82512054
    36   1      5.8080345899999992      12.770561599999999      1.4603012099999999
    37   1      5.8080345899999992      12.770561599999999      7.3015060399999996
    38   1      5.8080345899999992      12.770561599999999      13.142710879999999
    39   1      5.8080345899999992      12.770561599999999      18.983915710000002
    40   1      5.8080345899999992      12.770561599999999             24.82512054
    41   1      5.8080345899999992      18.664666939999996      1.4603012099999999
    42   1      5.8080345899999992      18.664666939999996      7.3015060399999996
    43   1      5.8080345899999992      18.664666939999996      13.142710879999999
    44   1      5.8080345899999992      18.664666939999996      18.983915710000002
    45   1      5.8080345899999992      18.664666939999996             24.82512054
    46   1      5.8080345899999992      24.558772279999996      1.4603012099999999
    47   1      5.8080345899999992      24.558772279999996      7.3015060399999996
    48   1      5.8080345899999992      24.558772279999996      13.142710879999999
    49   1      5.8080345899999992      24.558772279999996      18.983915710000002
    50   1      5.8080345899999992      24.558772279999996             24.82512054
    51   1      9.6800576399999976     0.98235091999999991      1.4603012099999999
    52   1      9.6800576399999976     0.98235091999999991      7.3015060399999996
    53   1      9.6800576399999976     0.98235091999999991      13.142710879999999
    54   1      9.6800576399999976     0.98235091999999991      18.983915710000002
    55   1      9.6800576399999976     0.98235091999999991             24.82512054
    56   1      9.6800576399999976      6.8764562599999994      1.4603012099999999
    57   1      9.6800576399999976      6.8764562599999994      7.3015060399999996
    58   1      9.6800576399999976      6.8764562599999994      13.142710879999999
    59   1      9.6800576399999976      6.8764562599999994      18.983915710000002
    60   1      9.6800576399999976      6.8764562599999994             24.82512054
    61   1      9.6800576399999976      12.770561599999999      1.4603012099999999
    62   1      9.6800576399999976      12.770561599999999      7.3015060399999996
    63   1      9.6800576399999976      12.770561599999999      13.142710879999999
    64   1      9.6800576399999976      12.770561599999999      18.983915710000002
    65   1      9.6800576399999976      12.770561599999999             24.82512054
    66   1      9.6800576399999976      18.664666939999996      1.4603012099999999
    67   1      9.6800576399999976      18.664666939999996      7.3015060399999996
    68   1      9.6800576399999976      18.664666939999996      13.142710879999999
    69   1      9.6800576399999976      18.664666939999996      18.983915710000002
    70   1      9.6800576399999976      18.664666939999996             24.82512054
    71   1      9.6800576399999976      24.558772279999996      1.4603012099999999
    72   1      9.6800576399999976      24.558772279999996      7.3015060399999996
    73   1      9.6800576399999976      24.558772279999996      13.142710879999999
    74   1      9.6800576399999976      24.558772279999996      18.983915710000002
    75   1      9.6800576399999976      24.558772279999996             24.82512054
    76   1      13.552080699999998     0.98235091999999991      1.4603012099999999
    77   1      13.552080699999998     0.98235091999999991      7.3015060399999996
    78   1      13.552080699999998     0.98235091999999991      13.142710879999999
    79   1      13.552080699999998     0.98235091999999991      18.983915710000002
    80   1      13.552080699999998     0.98235091999999991             24.82512054
    81   1      13.552080699999998      6.8764562599999994      1.4603012099999999
    82   1      13.552080699999998      6.8764562599999994      7.3015060399999996
    83   1      13.552080699999998      6.8764562599999994      13.142710879999999
    84   1      13.552080699999998      6.8764562599999994      18.983915710000002
    85   1      13.552080699999998      6.8764562599999994             24.82512054
    86   1      13.552080699999998      12.770561599999999      1.4603012099999999
    87   1      13.552080699999998      12.770561599999999      7.3015060399999996
    88   1      13.552080699999998      12.770561599999999      13.142710879999999
    89   1      13.552080699999998      12.770561599999999      18.983915710000002
    90   1      13.552080699999998      12.770561599999999             24.82512054
    91   1      13.552080699999998      18.664666939999996      1.4603012099999999
    92   1      13.552080699999998      18.664666939999996      7.3015060399999996
    93   1      13.552080699999998      18.664666939999996      13.142710879999999
    94   1      13.552080699999998      18.664666939999996      18.983915710000002
    95   1      13.552080699999998      18.664666939999996             24.82512054
    96   1      13.552080699999998      24.558772279999996      1.4603012099999999
    97   1      13.552080699999998      24.558772279999996      7.3015060399999996
    98   1      13.552080699999998      24.558772279999996      13.142710879999999
    99   1      13.552080699999998      24.558772279999996      18.983915710000002
   100   1      13.552080699999998      24.558772279999996             24.82512054
   101   1      17.424103759999998     0.98235091999999991      1.4603012099999999
   102   1      17.424103759999998     0.98235091999999991      7.3015060399999996
   103   1      17.424103759999998     0.98235091999999991      13.142710879999999
   104   1      17.424103759999998     0.98235091999999991      18.983915710000002
   105   1      17.424103759999998     0.98235091999999991             24.82512054
   106   1      17.424103759999998      6.8764562599999994      1.4603012099999999
   107   1      17.424103759999998      6.8764562599999994      7.3015060399999996
   108   1      17.424103759999998      6.8764562599999994      13.142710879999999
   109   1      17.424103759999998      6.8764562599999994      18.983915710000002
   110   1      17.424103759999998      6.8764562599999994             24.82512054
   111   1      17.424103759999998      12.770561599999999      1.4603012099999999
   112   1      17.424103759999998      12.770561599999999      7.3015060399999996
   113   1      17.424103759999998      12.770561599999999      13.142710879999999
   114   1      17.424103759999998      12.770561599999999      18.983915710000002
   115   1      17.424103759999998      12.770561599999999             24.82512054
   116   1      17.424103759999998      18.664666939999996      1.4603012099999999
   117   1      17.424103759999998      18.664666939999996      7.3015060399999996
   118   1      17.424103759999998      18.664666939999996      13.142710879999999
   119   1      17.424103759999998      18.664666939999996      18.983915710000002
   120   1      17.424103759999998      18.664666939999996             24.82512054
   121   1      17.424103759999998      24.558772279999996      1.4603012099999999
   122   1      17.424103759999998      24.558772279999996      7.3015060399999996
   123   1      17.424103759999998      24.558772279999996      13.142710879999999
   124   1      17.424103759999998      24.558772279999996      18.983915710000002
   125   1      17.424103759999998      24.558772279999996             24.82512054
   126   1                       0      3.9294036799999996      1.4603012099999999
   127   1                       0      3.9294036799999996      7.3015060399999996
   128   1                       0      3.9294036799999996      13.142710879999999
   129   1                       0      3.9294036799999996      18.983915710000002
   130   1                       0      3.9294036799999996             24.82512054
   131   1                       0      9.8235090199999977      1.4603012099999999
   132   1                       0      9.8235090199999977      7.3015060399999996
   133   1                       0      9.8235090199999977      13.142710879999999
   134   1                       0      9.8235090199999977      18.983915710000002
   135   1                       0      9.8235090199999977             24.82512054
   136   1                       0      15.717614359999999      1.4603012099999999
   137   1                       0      15.717614359999999      7.3015060399999996
   138   1                       0      15.717614359999999      13.142710879999999
   139   1                       0      15.717614359999999      18.983915710000002
   140   1                       0      15.717614359999999             24.82512054
   141   1                       0      21.611719699999995      1.4603012099999999
   142   1                       0      21.611719699999995      7.3015060399999996
   143   1                       0      21.611719699999995      13.142710879999999
   144   1                       0      21.611719699999995      18.983915710000002
   145   1                       0      21.611719699999995             24.82512054
   146   1                       0      27.505825039999998      1.4603012099999999
   147   1                       0      27.505825039999998      7.3015060399999996
   148   1                       0      27.505825039999998      13.142710879999999
   149   1                       0      27.505825039999998      18.983915710000002
   150   1                       0      27.505825039999998             24.82512054
   151   1      3.8720230599999996      3.9294036799999996      1.4603012099999999
   152   1      3.8720230599999996      3.9294036799999996      7.3015060399999996
   153   1      3.8720230599999996      3.9294036799999996      13.142710879999999
   154   1      3.8720230599999996      3.9294036799999996      18.983915710000002
   155   1      3.8720230599999996      3.9294036799999996             24.82512054
   156   1      3.8720230599999996      9.8235090199999977      1.4603012099999999
   157   1      3.8720230599999996      9.8235090199999977      7.3015060399999996
   158   1      3.8720230599999996      9.8235090199999977      13.142710879999999
   159   1      3.8720230599999996      9.8235090199999977      18.983915710000002
   160   1      3.8720230599999996      9.8235090199999977             24.82512054
   161   1      3.8720230599999996      15.717614359999999      1.4603012099999999
   162   1      3.8720230599999996      15.717614359999999      7.3015060399999996
   163   1      3.8720230599999996      15.717614359999999      13.142710879999999
   164   1      3.8720230599999996      15.717614359999999      18.983915710000002
   165   1      3.8720230599999996      15.717614359999999             24.82512054
   166   1      3.8720230599999996      21.611719699999995      1.4603012099999999
   167   1      3.8720230599999996      21.611719699999995      7.3015060399999996
   168   1      3.8720230599999996      21.611719699999995      13.142710879999999
   169   1      3.8720230599999996      21.611719699999995      18.983915710000002
   170   1      3.8720230599999996      21.611719699999995             24.82512054
   171   1      3.8720230599999996      27.505825039999998      1.4603012099999999
   172   1      3.8720230599999996      27.505825039999998      7.3015060399999996
   173   1      3.8720230599999996      27.505825039999998      13.142710879999999
   174   1      3.8720230599999996      27.505825039999998      18.983915710000002
   175   1      3.8720230599999996      27.505825039999998             24.82512054
   176   1      7.7440461199999993      3.9294036799999996      1.4603012099999999
   177   1      7.7440461199999993      3.9294036799999996      7.3015060399999996
   178   1      7.7440461199999993      3.9294036799999996      13.142710879999999
   179   1      7.7440461199999993      3.9294036799999996      18.983915710000002
   180   1      7.7440461199999993      3.9294036799999996             24.82512054
   181   1      7.7440461199999993      9.8235090199999977      1.4603012099999999
   182   1      7.7440461199999993      9.8235090199999977      7.3015060399999996
   183   1      7.7440461199999993      9.8235090199999977      13.142710879999999
   184   1      7.7440461199999993      9.8235090199999977      18.983915710000002
   185   1      7.7440461199999993      9.8235090199999977             24.82512054
   186   1      7.7440461199999993      15.717614359999999      1.4603012099999999
   187   1      7.7440461199999993      15.717614359999999      7.3015060399999996
   188   1      7.7440461199999993      15.717614359999999      13.142710879999999
   189   1      7.7440461199999993      15.717614359999999      18.983915710000002
   190   1      7.7440461199999993      15.717614359999999             24.82512054
   191   1      7.7440461199999993      21.611719699999995      1.4603012099999999
   192   1      7.7440461199999993      21.611719699999995      7.3015060399999996
   193   1      7.7440461199999993      21.611719699999995      13.142710879999999
   194   1      7.7440461199999993      21.611719699999995      18.983915710000002
   195   1      7.7440461199999993      21.611719699999995             24.82512054
   196   1      7.7440461199999993      27.505825039999998      1.4603012099999999
   197   1      7.7440461199999993      27.505825039999998      7.3015060399999996
   198   1      7.7440461199999993      27.505825039999998      13.142710879999999
   199   1      7.7440461199999993      27.505825039999998      18.983915710000002
   200   1      7.7440461199999993      27.505825039999998             24.82512054
   201   1      11.616069169999998      3.9294036799999996      1.4603012099999999
   202   1      11.616069169999998      3.9294036799999996      7.3015060399999996
   203   1      11.616069169999998      3.9294036799999996      13.142710879999999
   204   1      11.616069169999998      3.9294036799999996      18.983915710000002
   205   1      11.616069169999998      3.9294036799999996             24.82512054
   206   1      11.616069169999998      9.8235090199999977      1.4603012099999999
   207   1      11.616069169999998      9.8235090199999977      7.3015060399999996
   208   1      11.616069169999998      9.8235090199999977      13.142710879999999
   209   1      11.616069169999998      9.8235090199999977      18.983915710000002
   210   1      11.616069169999998      9.8235090199999977             24.82512054
   211   1      11.616069169999998      15.717614359999999      1.4603012099999999
   212   1      11.616069169999998      15.717614359999999      7.3015060399999996
   213   1      11.616069169999998      15.717614359999999      13.142710879999999
   214   1      11.616069169999998      15.717614359999999      18.983915710000002
   215   1      11.616069169999998      15.717614359999999             24.82512054
   216   1      11.616069169999998      21.611719699999995      1.4603012099999999
   217   1      11.616069169999998      21.611719699999995      7.3015060399999996
   218   1      11.616069169999998      21.611719699999995      13.142710879999999
   219   1      11.616069169999998      21.611719699999995      18.983915710000002
   220   1      11.616069169999998      21.611719699999995             24.82512054
   221   1      11.616069169999998      27.505825039999998      1.4603012099999999
   222   1      11.616069169999998      27.505825039999998      7.3015060399999996
   223   1      11.616069169999998      27.505825039999998      13.142710879999999
   224   1      11.616069169999998      27.505825039999998      18.983915710000002
   225   1      11.616069169999998      27.505825039999998             24.82512054
   226   1      15.488092229999998      3.9294036799999996      1.4603012099999999
   227   1      15.488092229999998      3.9294036799999996      7.3015060399999996
   228   1      15.488092229999998      3.9294036799999996      13.142710879999999
   229   1      15.488092229999998      3.9294036799999996      18.983915710000002
   230   1      15.488092229999998      3.9294036799999996             24.82512054
   231   1      15.488092229999998      9.8235090199999977      1.4603012099999999
   232   1      15.488092229999998      9.8235090199999977      7.3015060399999996
   233   1      15.488092229999998      9.8235090199999977      13.142710879999999
   234   1      15.488092229999998      9.8235090199999977      18.983915710000002
   235   1      15.488092229999998      9.8235090199999977             24.82512054
   236   1      15.488092229999998      15.717614359999999      1.4603012099999999
   237   1      15.488092229999998      15.717614359999999      7.3015060399999996
   238   1      15.488092229999998      15.717614359999999      13.142710879999999
   239   1      15.488092229999998      15.717614359999999      18.983915710000002
   240   1      15.488092229999998      15.717614359999999             24.82512054
   241   1      15.488092229999998      21.611719699999995      1.4603012099999999
   242   1      15.488092229999998      21.611719699999995      7.3015060399999996
   243   1      15.488092229999998      21.611719699999995      13.142710879999999
   244   1      15.488092229999998      21.611719699999995      18.983915710000002
   245   1      15.488092229999998      21.611719699999995             24.82512054
   246   1      15.488092229999998      27.505825039999998      1.4603012099999999
   247   1      15.488092229999998      27.505825039999998      7.3015060399999996
   248   1      15.488092229999998      27.505825039999998      13.142710879999999
   249   1      15.488092229999998      27.505825039999998      18.983915710000002
   250   1      15.488092229999998      27.505825039999998             24.82512054
   251   1      1.9360114099999999      4.9117546799999987      4.3809036299999997
   252   1      1.9360114099999999      4.9117546799999987      10.222108459999999
   253   1      1.9360114099999999      4.9117546799999987             16.06331329
   254   1      1.9360114099999999      4.9117546799999987             21.90451813
   255   1      1.9360114099999999      4.9117546799999987      27.745722959999998
   256   1      1.9360114099999999      10.805860019999999      4.3809036299999997
   257   1      1.9360114099999999      10.805860019999999      10.222108459999999
   258   1      1.9360114099999999      10.805860019999999             16.06331329
   259   1      1.9360114099999999      10.805860019999999             21.90451813
   260   1      1.9360114099999999      10.805860019999999      27.745722959999998
   261   1      1.9360114099999999      16.699965359999997      4.3809036299999997
   262   1      1.9360114099999999      16.699965359999997      10.222108459999999
   263   1      1.9360114099999999      16.699965359999997             16.06331329
   264   1      1.9360114099999999      16.699965359999997             21.90451813
   265   1      1.9360114099999999      16.699965359999997      27.745722959999998
   266   1      1.9360114099999999      22.594070699999996      4.3809036299999997
   267   1      1.9360114099999999      22.594070699999996      10.222108459999999
   268   1      1.9360114099999999      22.594070699999996             16.06331329
   269   1      1.9360114099999999      22.594070699999996             21.90451813
   270   1      1.9360114099999999      22.594070699999996      27.745722959999998
   271   1      1.9360114099999999      28.488176039999995      4.3809036299999997
   272   1      1.9360114099999999      28.488176039999995      10.222108459999999
   273   1      1.9360114099999999      28.488176039999995             16.06331329
   274   1      1.9360114099999999      28.488176039999995             21.90451813
   275   1      1.9360114099999999      28.488176039999995      27.745722959999998
   276   1      5.8080344699999991      4.9117546799999987      4.3809036299999997
   277   1      5.8080344699999991      4.9117546799999987      10.222108459999999
   278   1      5.8080344699999991      4.9117546799999987             16.06331329
   279   1      5.8080344699999991      4.9117546799999987             21.90451813
   280   1      5.8080344699999991      4.9117546799999987      27.745722959999998
   281   1      5.8080344699999991      10.805860019999999      4.3809036299999997
   282   1      5.8080344699999991      10.805860019999999      10.222108459999999
   283   1      5.8080344699999991      10.805860019999999             16.06331329
   284   1      5.8080344699999991      10.805860019999999             21.90451813
   285   1      5.8080344699999991      10.805860019999999      27.745722959999998
   286   1      5.8080344699999991      16.699965359999997      4.3809036299999997
   287   1      5.8080344699999991      16.699965359999997      10.222108459999999
   288   1      5.8080344699999991      16.699965359999997             16.06331329
   289   1      5.8080344699999991      16.699965359999997             21.90451813
   290   1      5.8080344699999991      16.699965359999997      27.745722959999998
   291   1      5.8080344699999991      22.594070699999996      4.3809036299999997
   292   1      5.8080344699999991      22.594070699999996      10.222108459999999
   293   1      5.8080344699999991      22.594070699999996             16.06331329
   294   1      5.8080344699999991      22.594070699999996             21.90451813
   295   1      5.8080344699999991      22.594070699999996      27.745722959999998
   296   1      5.8080344699999991      28.488176039999995      4.3809036299999997
   297   1      5.8080344699999991      28.488176039999995      10.222108459999999
   298   1      5.8080344699999991      28.488176039999995             16.06331329
   299   1      5.8080344699999991      28.488176039999995             21.90451813
   300   1      5.8080344699999991      28.488176039999995      27.745722959999998
   301   1      9.6800575299999974      4.9117546799999987      4.3809036299999997
   302   1      9.6800575299999974      4.9117546799999987      10.222108459999999
   303   1      9.6800575299999974      4.9117546799999987             16.06331329
   304   1      9.6800575299999974      4.9117546799999987             21.90451813
   305   1      9.6800575299999974      4.9117546799999987      27.745722959999998
   306   1      9.6800575299999974      10.805860019999999      4.3809036299999997
   307   1      9.6800575299999974      10.805860019999999      10.222108459999999
   308   1      9.6800575299999974      10.805860019999999             16.06331329
   309   1      9.6800575299999974      10.805860019999999             21.90451813
   310   1      9.6800575299999974      10.805860019999999      27.745722959999998
   311   1      9.6800575299999974      16.699965359999997      4.3809036299999997
   312   1      9.6800575299999974      16.699965359999997      10.222108459999999
   313   1      9.6800575299999974      16.699965359999997             16.06331329
   314   1      9.6800575299999974      16.699965359999997             21.90451813
   315   1      9.6800575299999974      16.699965359999997      27.745722959999998
   316   1      9.6800575299999974      22.594070699999996      4.3809036299999997
   317   1      9.6800575299999974      22.594070699999996      10.222108459999999
   318   1      9.6800575299999974      22.594070699999996             16.06331329
   319   1      9.6800575299999974      22.594070699999996             21.90451813
   320   1      9.6800575299999974      22.594070699999996      27.745722959999998
   321   1      9.6800575299999974      28.488176039999995      4.3809036299999997
   322   1      9.6800575299999974      28.488176039999995      10.222108459999999
   323   1      9.6800575299999974      28.488176039999995             16.06331329
   324   1      9.6800575299999974      28.488176039999995             21.90451813
   325   1      9.6800575299999974      28.488176039999995      27.745722959999998
   326   1      13.552080589999997      4.9117546799999987      4.3809036299999997
   327   1      13.552080589999997      4.9117546799999987      10.222108459999999
   328   1      13.552080589999997      4.9117546799999987             16.06331329
   329   1      13.552080589999997      4.9117546799999987             21.90451813
   330   1      13.552080589999997      4.9117546799999987      27.745722959999998
   331   1      13.552080589999997      10.805860019999999      4.3809036299999997
   332   1      13.552080589999997      10.805860019999999      10.222108459999999
   333   1      13.552080589999997      10.805860019999999             16.06331329
   334   1      13.552080589999997      10.805860019999999             21.90451813
   335   1      13.552080589999997      10.805860019999999      27.745722959999998
   336   1      13.552080589999997      16.699965359999997      4.3809036299999997
   337   1      13.552080589999997      16.699965359999997      10.222108459999999
   338   1      13.552080589999997      16.699965359999997             16.06331329
   339   1      13.552080589999997      16.699965359999997             21.90451813
   340   1      13.552080589999997      16.699965359999997      27.745722959999998
   341   1      13.552080589999997      22.594070699999996      4.3809036299999997
   342   1      13.552080589999997      22.594070699999996      10.222108459999999
   343   1      13.552080589999997      22.594070699999996             16.06331329
   344   1      13.552080589999997      22.594070699999996             21.90451813
   345   1      13.552080589999997      22.594070699999996      27.745722959999998
   346   1      13.552080589999997      28.488176039999995      4.3809036299999997
   347   1      13.552080589999997      28.488176039999995      10.222108459999999
   348   1      13.552080589999997      28.488176039999995             16.06331329
   349   1      13.552080589999997      28.488176039999995             21.90451813
   350   1      13.552080589999997      28.488176039999995      27.745722959999998
   351   1      17.424103639999995      4.9117546799999987      4.3809036299999997
   352   1      17.424103639999995      4.9117546799999987      10.222108459999999
   353   1      17.424103639999995      4.9117546799999987             16.06331329
   354   1      17.424103639999995      4.9117546799999987             21.90451813
   355   1      17.424103639999995      4.9117546799999987      27.745722959999998
   356   1      17.424103639999995      10.805860019999999      4.3809036299999997
   357   1      17.424103639999995      10.805860019999999      10.222108459999999
   358   1      17.424103639999995      10.805860019999999             16.06331329
   359   1      17.424103639999995      10.805860019999999             21.90451813