ITEM: TIMESTEP
0
ITEM: NUMBER OF ATOMS
500
ITEM: BOX BOUNDS pp pp pp
0.0000000000000000e+00 1.9360115290000000e+01
0.0000000000000000e+00 2.9470526700000001e+01
0.0000000000000000e+00 2.9206024169999999e+01
ITEM: ATOMS id type x y z
1 1 1.93601 0.982351 1.4603
2 1 1.93601 0.982351 7.30151
3 1 1.93601 0.982351 13.1427
4 1 1.93601 0.982351 18.9839
5 1 1.93601 0.982351 24.8251
6 1 1.93601 6.87646 1.4603
7 1 1.93601 6.87646 7.30151
8 1 1.93601 6.87646 13.1427
9 1 1.93601 6.87646 18.9839
10 1 1.93601 6.87646 24.8251
11 1 1.93601 12.7706 1.4603
12 1 1.93601 12.7706 7.30151
13 1 1.93601 12.7706 13.1427
14 1 1.93601 12.7706 18.9839
15 1 1.93601 12.7706 24.8251
16 1 1.93601 18.6647 1.4603
17 1 1.93601 18.6647 7.30151
18 1 1.93601 18.6647 13.1427
19 1 1.93601 18.6647 18.9839
20 1 1.93601 18.6647 24.8251
21 1 1.93601 24.5588 1.4603
22 1 1.93601 24.5588 7.30151
23 1 1.93601 24.5588 13.1427
24 1 1.93601 24.5588 18.9839
25 1 1.93601 24.5588 24.8251
26 1 5.80803 0.982351 1.4603
27 1 5.80803 0.982351 7.30151
28 1 5.80803 0.982351 13.1427
29 1 5.80803 0.982351 18.9839
30 1 5.80803 0.982351 24.8251
31 1 5.80803 6.87646 1.4603
32 1 5.80803 6.87646 7.30151
33 1 5.80803 6.87646 13.1427
34 1 5.80803 6.87646 18.9839
35 1 5.80803 6.87646 24.8251
36 1 5.80803 12.7706 1.4603
37 1 5.80803 12.7706 7.30151
38 1 5.80803 12.7706 13.1427
39 1 5.80803 12.7706 18.9839
40 1 5.80803 12.7706 24.8251
41 1 5.80803 18.6647 1.4603
42 1 5.80803 18.6647 7.30151
43 1 5.80803 18.6647 13.1427
44 1 5.80803 18.6647 18.9839
45 1 5.80803 18.6647 24.8251
46 1 5.80803 24.5588 1.4603
47 1 5.80803 24.5588 7.30151
48 1 5.80803 24.5588 13.1427
49 1 5.80803 24.5588 18.9839
50 1 5.80803 24.5588 24.8251
51 1 9.68006 0.982351 1.4603
52 1 9.68006 0.982351 7.30151
53 1 9.68006 0.982351 13.1427
54 1 9.68006 0.982351 18.9839
55 1 9.68006 0.982351 24.8251
56 1 9.68006 6.87646 1.4603
57 1 9.68006 6.87646 7.30151
58 1 9.68006 6.87646 13.1427
59 1 9.68006 6.87646 18.9839
60 1 9.68006 6.87646 24.8251
61 1 9.68006 12.7706 1.4603
62 1 9.68006 12.7706 7.30151
63 1 9.68006 12.7706 13.1427
64 1 9.68006 12.7706 18.9839
65 1 9.68006 12.7706 24.8251
66 1 9.68006 18.6647 1.4603
67 1 9.68006 18.6647 7.30151
68 1 9.68006 18.6647 13.1427
69 1 9.68006 18.6647 18.9839
70 1 9.68006 18.6647 24.8251
71 1 9.68006 24.5588 1.4603
72 1 9.68006 24.5588 7.30151
73 1 9.68006 24.5588 13.1427
74 1 9.68006 24.5588 18.9839
75 1 9.68006 24.5588 24.8251
76 1 13.5521 0.982351 1.4603
77 1 13.5521 0.982351 7.30151
78 1 13.5521 0.982351 13.1427
79 1 13.5521 0.982351 18.9839
80 1 13.5521 0.982351 24.8251
81 1 13.5521 6.87646 1.4603
82 1 13.5521 6.87646 7.30151
83 1 13.5521 6.87646 13.1427
84 1 13.5521 6.87646 18.9839
85 1 13.5521 6.87646 24.8251
86 1 13.5521 12.7706 1.4603
87 1 13.5521 12.7706 7.30151
88 1 13.5521 12.7706 13.1427
89 1 13.5521 12.7706 18.9839
90 1 13.5521 12.7706 24.8251
91 1 13.5521 18.6647 1.4603
92 1 13.5521 18.6647 7.30151
93 1 13.5521 18.6647 13.1427
94 1 13.5521 18.6647 18.9839
95 1 13.5521 18.6647 24.8251
96 1 13.5521 24.5588 1.4603
97 1 13.5521 24.5588 7.30151
98 1 13.5521 24.5588 13.1427
99 1 13.5521 24.5588 18.9839
100 1 13.5521 24.5588 24.8251
101 1 17.4241 0.982351 1.4603
102 1 17.4241 0.982351 7.30151
103 1 17.4241 0.982351 13.1427
104 1 17.4241 0.982351 18.9839
105 1 17.4241 0.982351 24.8251
106 1 17.4241 6.87646 1.4603
107 1 17.4241 6.87646 7.30151
108 1 17.4241 6.87646 13.1427
109 1 17.4241 6.87646 18.9839
110 1 17.4241 6.87646 24.8251
111 1 17.4241 12.7706 1.4603
112 1 17.4241 12.7706 7.30151
113 1 17.4241 12.7706 13.1427
114 1 17.4241 12.7706 18.9839
115 1 17.4241 12.7706 24.8251
116 1 17.4241 18.6647 1.4603
117 1 17.4241 18.6647 7.30151
118 1 17.4241 18.6647 13.1427
119 1 17.4241 18.6647 18.9839
120 1 17.4241 18.6647 24.8251
121 1 17.4241 24.5588 1.4603
122 1 17.4241 24.5588 7.30151
123 1 17.4241 24.5588 13.1427
124 1 17.4241 24.5588 18.9839
125 1 17.4241 24.5588 24.8251
126 1 0 3.9294 1.4603
127 1 0 3.9294 7.30151
128 1 0 3.9294 13.1427
129 1 0 3.9294 18.9839
130 1 0 3.9294 24.8251
131 1 0 9.82351 1.4603
132 1 0 9.82351 7.30151
133 1 0 9.82351 13.1427
134 1 0 9.82351 18.9839
135 1 0 9.82351 24.8251
136 1 0 15.7176 1.4603
137 1 0 15.7176 7.30151
138 1 0 15.7176 13.1427
139 1 0 15.7176 18.9839
140 1 0 15.7176 24.8251
141 1 0 21.6117 1.4603
142 1 0 21.6117 7.30151
143 1 0 21.6117 13.1427
144 1 0 21.6117 18.9839
145 1 0 21.6117 24.8251
146 1 0 27.5058 1.4603
147 1 0 27.5058 7.30151
148 1 0 27.5058 13.1427
149 1 0 27.5058 18.9839
150 1 0 27.5058 24.8251
151 1 3.87202 3.9294 1.4603
152 1 3.87202 3.9294 7.30151
153 1 3.87202 3.9294 13.1427
154 1 3.87202 3.9294 18.9839
155 1 3.87202 3.9294 24.8251
156 1 3.87202 9.82351 1.4603
157 1 3.87202 9.82351 7.30151
158 1 3.87202 9.82351 13.1427
159 1 3.87202 9.82351 18.9839
160 1 3.87202 9.82351 24.8251
161 1 3.87202 15.7176 1.4603
162 1 3.87202 15.7176 7.30151
163 1 3.87202 15.7176 13.1427
164 1 3.87202 15.7176 18.9839
165 1 3.87202 15.7176 24.8251
166 1 3.87202 21.6117 1.4603
167 1 3.87202 21.6117 7.30151
168 1 3.87202 21.6117 13.1427
169 1 3.87202 21.6117 18.9839
170 1 3.87202 21.6117 24.8251
171 1 3.87202 27.5058 1.4603
172 1 3.87202 27.5058 7.30151
173 1 3.87202 27.5058 13.1427
174 1 3.87202 27.5058 18.9839
175 1 3.87202 27.5058 24.8251
176 1 7.74405 3.9294 1.4603
177 1 7.74405 3.9294 7.30151
178 1 7.74405 3.9294 13.1427
179 1 7.74405 3.9294 18.9839
180 1 7.74405 3.9294 24.8251
181 1 7.74405 9.82351 1.4603
182 1 7.74405 9.82351 7.30151
183 1 7.74405 9.82351 13.1427
184 1 7.74405 9.82351 18.9839
185 1 7.74405 9.82351 24.8251
186 1 7.74405 15.7176 1.4603
187 1 7.74405 15.7176 7.30151
188 1 7.74405 15.7176 13.1427
189 1 7.74405 15.7176 18.9839
190 1 7.74405 15.7176 24.8251
191 1 7.74405 21.6117 1.4603
192 1 7.74405 21.6117 7.30151
193 1 7.74405 21.6117 13.1427
194 1 7.74405 21.6117 18.9839
195 1 7.74405 21.6117 24.8251
196 1 7.74405 27.5058 1.4603
197 1 7.74405 27.5058 7.30151
198 1 7.74405 27.5058 13.1427
199 1 7.74405 27.5058 18.9839
200 1 7.74405 27.5058 24.8251
201 1 11.6161 3.9294 1.4603
202 1 11.6161 3.9294 7.30151
203 1 11.6161 3.9294 13.1427
204 1 11.6161 3.9294 18.9839
205 1 11.6161 3.9294 24.8251
206 1 11.6161 9.82351 1.4603
207 1 11.6161 9.82351 7.30151
208 1 11.6161 9.82351 13.1427
209 1 11.6161 9.82351 18.9839
210 1 11.6161 9.82351 24.8251
211 1 11.6161 15.7176 1.4603
212 1 11.6161 15.7176 7.30151
213 1 11.6161 15.7176 13.1427
214 1 11.6161 15.7176 18.9839
215 1 11.6161 15.7176 24.8251
216 1 11.6161 21.6117 1.4603
217 1 11.6161 21.6117 7.30151
218 1 11.6161 21.6117 13.1427
219 1 11.6161 21.6117 18.9839
220 1 11.6161 21.6117 24.8251
221 1 11.6161 27.5058 1.4603
222 1 11.6161 27.5058 7.30151
223 1 11.6161 27.5058 13.1427
224 1 11.6161 27.5058 18.9839
225 1 11.6161 27.5058 24.8251
226 1 15.4881 3.9294 1.4603
227 1 15.4881 3.9294 7.30151
228 1 15.4881 3.9294 13.1427
229 1 15.4881 3.9294 18.9839
230 1 15.4881 3.9294 24.8251
231 1 15.4881 9.82351 1.4603
232 1 15.4881 9.82351 7.30151
233 1 15.4881 9.82351 13.1427
234 1 15.4881 9.82351 18.9839
235 1 15.4881 9.82351 24.8251
236 1 15.4881 15.7176 1.4603
237 1 15.4881 15.7176 7.30151
238 1 15.4881 15.7176 13.1427
239 1 15.4881 15.7176 18.9839
240 1 15.4881 15.7176 24.8251
241 1 15.4881 21.6117 1.4603
242 1 15.4881 21.6117 7.30151
243 1 15.4881 21.6117 13.1427
244 1 15.4881 21.6117 18.9839
245 1 15.4881 21.6117 24.8251
246 1 15.4881 27.5058 1.4603
247 1 15.4881 27.5058 7.30151
248 1 15.4881 27.5058 13.1427
249 1 15.4881 27.5058 18.9839
250 1 15.4881 27.5058 24.8251
251 1 1.93601 4.91175 4.3809
252 1 1.93601 4.91175 10.2221
253 1 1.93601 4.91175 16.0633
254 1 1.93601 4.91175 21.9045
255 1 1.93601 4.91175 27.7457
256 1 1.93601 10.8059 4.3809
257 1 1.93601 10.8059 10.2221
258 1 1.93601 10.8059 16.0633
259 1 1.93601 10.8059 21.9045
260 1 1.93601 10.8059 27.7457
261 1 1.93601 16.7 4.3809
262 1 1.93601 16.7 10.2221
263 1 1.93601 16.7 16.0633
264 1 1.93601 16.7 21.9045
265 1 1.93601 16.7 27.7457
266 1 1.93601 22.5941 4.3809
267 1 1.93601 22.5941 10.2221
268 1 1.93601 22.5941 16.0633
269 1 1.93601 22.5941 21.9045
270 1 1.93601 22.5941 27.7457
271 1 1.93601 28.4882 4.3809
272 1 1.93601 28.4882 10.2221
273 1 1.93601 28.4882 16.0633
274 1 1.93601 28.4882 21.9045
275 1 1.93601 28.4882 27.7457
276 1 5.80803 4.91175 4.3809
277 1 5.80803 4.91175 10.2221
278 1 5.80803 4.91175 16.0633
279 1 5.80803 4.91175 21.9045
280 1 5.80803 4.91175 27.7457
281 1 5.80803 10.8059 4.3809
282 1 5.80803 10.8059 10.2221
283 1 5.80803 10.8059 16.0633
284 1 5.80803 10.8059 21.9045
285 1 5.80803 10.8059 27.7457
286 1 5.80803 16.7 4.3809
287 1 5.80803 16.7 10.2221
288 1 5.80803 16.7 16.0633
289 1 5.80803 16.7 21.9045
290 1 5.80803 16.7 27.7457
291 1 5.80803 22.5941 4.3809
292 1 5.80803 22.5941 10.2221
293 1 5.80803 22.5941 16.0633
294 1 5.80803 22.5941 21.9045
295 1 5.80803 22.5941 27.7457
296 1 5.80803 28.4882 4.3809
297 1 5.80803 28.4882 10.2221
298 1 5.80803 28.4882 16.0633
299 1 5.80803 28.4882 21.9045
300 1 5.80803 28.4882 27.7457
301 1 9.68006 4.91175 4.3809
302 1 9.68006 4.91175 10.2221
303 1 9.68006 4.91175 16.0633
304 1 9.68006 4.91175 21.9045
305 1 9.68006 4.91175 27.7457
306 1 9.68006 10.8059 4.3809
307 1 9.68006 10.8059 10.2221
308 1 9.68006 10.8059 16.0633
309 1 9.68006 10.8059 21.9045
310 1 9.68006 10.8059 27.7457
311 1 9.68006 16.7 4.3809
312 1 9.68006 16.7 10.2221
313 1 9.68006 16.7 16.0633
314 1 9.68006 16.7 21.9045
315 1 9.68006 16.7 27.7457
316 1 9.68006 22.5941 4.3809
317 1 9.68006 22.5941 10.2221
318 1 9.68006 22.5941 16.0633
319 1 9.68006 22.5941 21.9045
320 1 9.68006 22.5941 27.7457
321 1 9.68006 28.4882 4.3809
322 1 9.68006 28.4882 10.2221
323 1 9.68006 28.4882 16.0633
324 1 9.68006 28.4882 21.9045
325 1 9.68006 28.4882 27.7457
326 1 13.5521 4.91175 4.3809
327 1 13.5521 4.91175 10.2221
328 1 13.5521 4.91175 16.0633
329 1 13.5521 4.91175 21.9045
330 1 13.5521 4.91175 27.7457
331 1 13.5521 10.8059 4.3809
332 1 13.5521 10.8059 10.2221
333 1 13.5521 10.8059 16.0633
334 1 13.5521 10.8059 21.9045
335 1 13.5521 10.8059 27.7457
336 1 13.5521 16.7 4.3809
337 1 13.5521 16.7 10.2221
338 1 13.5521 16.7 16.0633
339 1 13.5521 16.7 21.9045
340 1 13.5521 16.7 27.7457
341 1 13.5521 22.5941 4.3809
342 1 13.5521 22.5941 10.2221
343 1 13.5521 22.5941 16.0633
344 1 13.5521 22.5941 21.9045
345 1 13.5521 22.5941 27.7457
346 1 13.5521 28.4882 4.3809
347 1 13.5521 28.4882 10.2221
348 1 13.5521 28.4882 16.0633
349 1 13.5521 28.4882 21.9045
350 1 13.5521 28.4882 27.7457
351 1 17.4241 4.91175 4.3809
352 1 17.4241 4.91175 10.2221
353 1 17.4241 4.91175 16.0633
354 1 17.4241 4.91175 21.9045
355 1 17.4241 4.91175 27.7457
356 1 17.4241 10.8059 4.3809
357 1 17.4241 10.8059 10.2221
358 1 17.4241 10.8059 16.0633
359 1 17.4241 10.8059 21.9045
360 1 17.4241 10.8059 27.7457
361 1 17.4241 16.7 4.3809
362 1 17.4241 16.7 10.2221
363 1 17.4241 16.7 16.0633
364 1 17.4241 16.7 21.9045
365 1 17.4241 16.7 27.7457
366 1 17.4241 22.5941 4.3809
367 1 17.4241 22.5941 10.2221
368 1 17.4241 22.5941 16.0633
369 1 17.4241 22.5941 21.9045
370 1 17.4241 22.5941 27.7457
371 1 17.4241 28.4882 4.3809
372 1 17.4241 28.4882 10.2221
373 1 17.4241 28.4882 16.0633
374 1 17.4241 28.4882 21.9045
375 1 17.4241 28.4882 27.7457
376 1 0 1.9647 4.3809
377 1 0 1.9647 10.2221
378 1 0 1.9647 16.0633
379 1 0 1.9647 21.9045
380 1 0 1.9647 27.7457
381 1 0 7.85881 4.3809
382 1 0 7.85881 10.2221
383 1 0 7.85881 16.0633
384 1 0 7.85881 21.9045
385 1 0 7.85881 27.7457
386 1 0 13.7529 4.3809
387 1 0 13.7529 10.2221
388 1 0 13.7529 16.0633
389 1 0 13.7529 21.9045
390 1 0 13.7529 27.7457
391 1 0 19.647 4.3809
392 1 0 19.647 10.2221
393 1 0 19.647 16.0633
394 1 0 19.647 21.9045
395 1 0 19.647 27.7457
396 1 0 25.5411 4.3809
397 1 0 25.5411 10.2221
398 1 0 25.5411 16.0633
399 1 0 25.5411 21.9045
400 1 0 25.5411 27.7457
401 1 3.87202 1.9647 4.3809
402 1 3.87202 1.9647 10.2221
403 1 3.87202 1.9647 16.0633
404 1 3.87202 1.9647 21.9045
405 1 3.87202 1.9647 27.7457
406 1 3.87202 7.85881 4.3809
407 1 3.87202 7.85881 10.2221
408 1 3.87202 7.85881 16.0633
409 1 3.87202 7.85881 21.9045
410 1 3.87202 7.85881 27.7457
411 1 3.87202 13.7529 4.3809
412 1 3.87202 13.7529 10.2221
413 1 3.87202 13.7529 16.0633
414 1 3.87202 13.7529 21.9045
415 1 3.87202 13.7529 27.7457
416 1 3.87202 19.647 4.3809
417 1 3.87202 19.647 10.2221
418 1 3.87202 19.647 16.0633
419 1 3.87202 19.647 21.9045
420 1 3.87202 19.647 27.7457
421 1 3.87202 25.5411 4.3809
422 1 3.87202 25.5411 10.2221
423 1 3.87202 25.5411 16.0633
424 1 3.87202 25.5411 21.9045
425 1 3.87202 25.5411 27.7457
426 1 7.74405 1.9647 4.3809
427 1 7.74405 1.9647 10.2221
428 1 7.74405 1.9647 16.0633
429 1 7.74405 1.9647 21.9045
430 1 7.74405 1.9647 27.7457
431 1 7.74405 7.85881 4.3809
432 1 7.74405 7.85881 10.2221
433 1 7.74405 7.85881 16.0633
434 1 7.74405 7.85881 21.9045
435 1 7.74405 7.85881 27.7457
436 1 7.74405 13.7529 4.3809
437 1 7.74405 13.7529 10.2221
438 1 7.74405 13.7529 16.0633
439 1 7.74405 13.7529 21.9045
440 1 7.74405 13.7529 27.7457
441 1 7.74405 19.647 4.3809
442 1 7.74405 19.647 10.2221
443 1 7.74405 19.647 16.0633
444 1 7.74405 19.647 21.9045
445 1 7.74405 19.647 27.7457
446 1 7.74405 25.5411 4.3809
447 1 7.74405 25.5411 10.2221
448 1 7.74405 25.5411 16.0633
449 1 7.74405 25.5411 21.9045
450 1 7.74405 25.5411 27.7457
451 1 11.6161 1.9647 4.3809
452 1 11.6161 1.9647 10.2221
453 1 11.6161 1.9647 16.0633
454 1 11.6161 1.9647 21.9045
455 1 11.6161 1.9647 27.7457
456 1 11.6161 7.85881 4.3809
457 1 11.6161 7.85881 10.2221
458 1 11.6161 7.85881 16.0633
459 1 11.6161 7.85881 21.9045
460 1 11.6161 7.85881 27.7457
461 1 11.6161 13.7529 4.3809
462 1 11.6161 13.7529 10.2221
463 1 11.6161 13.7529 16.0633
464 1 11.6161 13.7529 21.9045
465 1 11.6161 13.7529 27.7457
466 1 11.6161 19.647 4.3809
467 1 11.6161 19.647 10.2221
468 1 11.6161 19.647 16.0633
469 1 11.6161 19.647 21.9045
470 1 11.6161 19.647 27.7457
471 1 11.6161 25.5411 4.3809
472 1 11.6161 25.5411 10.2221
473 1 11.6161 25.5411 16.0633
474 1 11.6161 25.5411 21.9045
475 1 11.6161 25.5411 27.7457
476 1 15.4881 1.9647 4.3809
477 1 15.4881 1.9647 10.2221
478 1 15.4881 1.9647 16.0633
479 1 15.4881 1.9647 21.9045
480 1 15.4881 1.9647 27.7457
481 1 15.4881 7.85881 4.3809
482 1 15.4881 7.85881 10.2221
483 1 15.4881 7.85881 16.0633
484 1 15.4881 7.85881 21.9045
485 1 15.4881 7.85881 27.7457
486 1 15.4881 13.7529 4.3809
487 1 15.4881 13.7529 10.2221
488 1 15.4881 13.7529 16.0633
489 1 15.4881 13.7529 21.9045
490 1 15.4881 13.7529 27.7457
491 1 15.4881 19.647 4.3809
492 1 15.4881 19.647 10.2221
493 1 15.4881 19.647 16.0633
494 1 15.4881 19.647 21.9045
495 1 15.4881 19.647 27.7457
496 1 15.4881 25.5411 4.3809
497 1 15.4881 25.5411 10.2221
498 1 15.4881 25.5411 16.0633
499 1 15.4881 25.5411 21.9045
500 1 15.4881 25.5411 27.7457
ITEM: TIMESTEP
100
ITEM: NUMBER OF ATOMS
500
ITEM: BOX BOUNDS pp pp pp
9.4967257777067571e-01 1.8410442712229333e+01
1.4456190286172843e+00 2.8024907671382739e+01
1.4326443745034276e+00 2.7773379795496556e+01
ITEM: ATOMS id type x y z
1 1 2.50997 2.33144 2.83552
2 1 2.65796 2.47745 8.05451
3 1 2.77436 2.36151 13.1035
4 1 2.56934 2.54521 18.5059
5 1 2.61745 2.405 23.8587
6 1 2.60489 7.71487 2.68625
7 1 2.69464 7.61462 7.7976
8 1 2.5954 7.77497 13.2544
9 1 2.84619 7.409 18.3629
10 1 2.7076 7.79807 23.873
11 1 2.68256 12.9669 2.68159
12 1 2.88808 12.9827 7.98593
13 1 2.78415 13.1778 13.4864
14 1 2.39928 12.9173 18.6799
15 1 2.55362 13.0834 23.7755
16 1 2.88631 18.4046 2.79596
17 1 2.79564 18.4916 8.27682
18 1 2.5897 18.4579 13.0598
19 1 2.73482 18.3943 18.4694
20 1 2.50456 18.5365 23.8433
21 1 2.82116 23.481 2.85975
22 1 2.61815 23.6892 8.05956
23 1 2.61532 23.6543 13.1756
24 1 2.77516 23.7146 18.4006
25 1 2.81306 23.5258 23.7988
26 1 6.06424 2.32874 2.73666
27 1 6.27778 2.44924 8.17714
28 1 6.16664 2.22899 13.1903
29 1 6.36101 2.24747 18.3652
30 1 6.13917 2.27609 23.9217
31 1 6.14249 7.75783 2.76483
32 1 6.43198 7.731 8.10082
33 1 6.29047 7.56438 13.1403
34 1 6.19754 7.79759 18.3835
35 1 6.05277 7.73794 23.6401
36 1 6.04183 13.0486 2.73003
37 1 6.24461 12.9985 7.7575
38 1 6.26117 12.9746 13.2367
39 1 6.34627 12.9702 18.7358
40 1 6.07019 13.1578 23.765
41 1 6.29573 18.3198 2.79639
42 1 6.27313 18.3198 8.05465
43 1 6.18233 18.2863 13.4297
44 1 6.01724 18.2382 18.6116
45 1 6.15721 18.4379 23.7176
46 1 6.25743 23.599 2.70389
47 1 6.26267 23.61 7.92678
48 1 6.3501 23.6451 13.2749
49 1 6.03048 23.6011 18.6214
50 1 6.21091 23.8628 23.9927
51 1 9.55699 2.67618 2.62865
52 1 9.81574 2.35391 8.13388
53 1 9.78369 2.30387 13.3455
54 1 9.68785 2.19905 18.3842
55 1 9.48265 2.5486 23.7478
56 1 9.67842 7.65096 2.82033
57 1 9.69237 7.75028 7.87793
58 1 9.64833 7.66792 13.288
59 1 9.64261 7.67824 18.429
60 1 9.78218 7.80682 23.8538
61 1 9.4443 13.1253 2.38545
62 1 9.9961 12.9508 8.04744
63 1 9.83335 13.1263 13.389
64 1 9.83362 12.992 18.7264
65 1 9.65995 12.8822 23.7798
66 1 9.4922 18.3081 2.5938
67 1 9.74815 18.4028 8.04728
68 1 9.69509 18.3274 13.5214
69 1 9.65781 18.3593 18.6386
70 1 9.88244 18.3925 23.8051
71 1 9.79909 23.5835 2.93826
72 1 9.55956 23.6642 8.09027
73 1 9.67092 23.6203 13.1937
74 1 9.57493 23.6434 18.5499
75 1 9.65272 23.7382 23.8571
76 1 13.0836 2.40315 2.75127
77 1 13.3474 2.44289 8.10092
78 1 13.189 2.28715 13.2704
79 1 12.9691 2.43578 18.6643
80 1 12.9597 2.57411 23.602
81 1 13.2146 7.78042 2.73345
82 1 13.1007 7.76643 8.07684
83 1 12.9117 7.66408 13.358
84 1 13.3514 7.50033 18.5817
85 1 13.0836 7.68587 23.8832
86 1 12.9351 12.9888 2.68883
87 1 13.2811 12.8087 8.06741
88 1 13.2339 12.9616 13.5026
89 1 13.2621 12.9606 18.7462
90 1 13.1695 13.1143 23.8477
91 1 13.0924 18.3274 2.79667
92 1 13.0301 18.2995 7.92543
93 1 13.1692 18.192 13.2485
94 1 13.2582 18.3654 18.6148
95 1 13.0827 18.2464 23.7541
96 1 13.2629 23.64 2.83632
97 1 13.2015 23.6345 8.02084
98 1 13.3212 23.8724 13.2074
99 1 13.3553 23.6652 18.5768
100 1 13.1534 23.6676 23.9014
101 1 16.6158 2.38046 2.72354
102 1 16.4762 2.48655 8.22386
103 1 16.7673 2.5073 13.1706
104 1 16.8094 2.31056 18.6512
105 1 16.8929 2.38773 23.9971
106 1 16.6909 7.63072 2.58742
107 1 16.9197 7.82013 7.94446
108 1 16.597 7.79026 13.2021
109 1 16.6888 7.57819 18.596
110 1 16.4303 7.79795 23.7401
111 1 16.7559 13.0244 2.75318
112 1 16.689 12.9565 8.16966
113 1 16.6735 12.929 13.4611
114 1 16.6602 12.9767 18.6123
115 1 16.8588 13.1224 23.8126
116 1 16.7104 18.4133 2.78557
117 1 16.4488 18.3758 8.00822
118 1 16.7668 18.5883 13.367
119 1 16.6841 18.4156 18.6219
120 1 16.53 18.3891 23.9465
121 1 16.7532 23.7654 2.64938
122 1 16.4793 23.6317 7.98854
123 1 16.6638 23.7859 13.0868
124 1 16.8587 23.7999 18.4515
125 1 16.5793 23.8009 23.7875
126 1 18.3593 5.0764 2.68856
127 1 18.3059 5.07257 7.99718
128 1 18.2417 5.10738 13.1745
129 1 18.4154 4.97592 18.6207
130 1 1.09829 5.08196 23.9567
131 1 0.983733 10.5172 2.77027
132 1 1.09046 10.3535 7.91175
133 1 0.975451 10.3514 13.3556
134 1 18.3567 10.1122 18.4232
135 1 18.2551 10.3509 23.8928
136 1 0.982105 15.6998 2.65726
137 1 1.21661 15.4643 8.17672
138 1 18.2274 15.761 13.4229
139 1 18.1523 15.6445 18.757
140 1 0.933657 15.793 23.8534
141 1 18.2511 21.0949 2.63873
142 1 18.1632 21.1943 7.92724
143 1 18.2866 21.18 13.058
144 1 18.3677 21.0384 18.6776
145 1 18.2576 21.0749 23.715
146 1 18.0363 26.4053 2.60639
147 1 18.2669 26.2694 8.04055
148 1 18.3663 26.3064 13.2684
149 1 1.01705 26.3139 18.5897
150 1 1.05698 26.1162 23.8896
151 1 4.26904 5.19634 2.99264
152 1 4.50923 4.98243 7.97677
153 1 4.35412 5.12239 13.1153
154 1 4.59398 4.75341 18.4354
155 1 4.299 5.07203 24.0154
156 1 4.33991 10.3088 2.57224
157 1 4.31837 10.2744 8.00293
158 1 4.52155 10.2893 13.2549
159 1 4.41146 10.4388 18.4439
160 1 4.37121 10.4272 23.8488
161 1 4.29069 15.6762 2.72899
162 1 4.362 15.8132 8.09264
163 1 4.62181 15.5519 13.3146
164 1 4.21073 15.5238 18.5773
165 1 4.34953 15.9494 23.7639
166 1 4.60984 20.8848 2.70139
167 1 4.44239 21.0987 8.15702
168 1 4.51348 21.2066 13.0763
169 1 4.44856 21.0337 18.6144
170 1 4.46151 20.9929 23.8443
171 1 4.60751 26.1561 2.8408
172 1 4.46356 26.283 8.07276
173 1 4.33723 26.1275 13.2509
174 1 4.32759 26.4644 18.5907
175 1 4.31579 26.2232 23.7861
176 1 7.71599 5.12831 2.96566
177 1 8.03434 4.94589 8.04692
178 1 7.89709 4.84845 13.1537
179 1 7.95242 4.93525 18.4996
180 1 7.82188 5.19351 23.6644
181 1 8.0057 10.3555 2.78405
182 1 8.14731 10.5577 8.14497
183 1 8.06028 10.4534 13.3599
184 1 8.04761 10.1596 18.7351
185 1 7.70641 10.4795 23.8447
186 1 7.74358 15.5848 2.75258
187 1 8.05039 15.5128 8.03465
188 1 8.00874 15.6069 13.5794
189 1 8.08529 15.5566 18.4967
190 1 8.0909 15.6248 23.6916
191 1 7.97705 21.0993 2.6306
192 1 7.97587 21.0394 8.0329
193 1 7.79943 20.8062 13.3332
194 1 7.76784 20.9555 18.5979
195 1 8.13602 21.0787 23.7837
196 1 8.07515 26.3552 2.80672
197 1 7.73598 26.3136 7.97344
198 1 8.01468 26.3037 13.1675
199 1 7.84527 26.1454 18.4476
200 1 8.1796 26.4501 23.9523
201 1 11.3225 5.11277 2.79375
202 1 11.4487 5.13267 8.10326
203 1 11.3912 5.02606 13.3124
204 1 11.2406 4.9863 18.5706
205 1 11.2689 5.22089 23.813
206 1 11.2817 10.488 2.62853
207 1 11.4312 10.4232 8.2319
208 1 11.355 10.3256 13.5247
209 1 11.349 10.2714 18.6079
210 1 11.5986 10.4218 23.782
211 1 11.1612 15.8522 2.64637
212 1 11.2764 15.7658 7.99873
213 1 11.5596 15.6345 13.3507
214 1 11.6605 15.7975 18.4622
215 1 11.3675 15.6453 23.7719
216 1 11.4746 20.9785 2.86853
217 1 11.5319 21.1032 7.98022
218 1 11.6368 20.8298 13.3777
219 1 11.4324 20.9742 18.6528
220 1 11.5265 21.1792 23.9586
221 1 11.4868 26.2133 2.73868
222 1 11.5865 26.2009 8.05521
223 1 11.4329 26.3352 13.1789
224 1 11.4604 26.1532 18.6779
225 1 11.3152 26.3167 23.638
226 1 14.8836 5.12911 2.59804
227 1 14.9904 5.28726 7.93283
228 1 14.9023 5.29493 13.1582
229 1 15.061 4.87334 18.3662
230 1 14.7392 5.11557 23.7735
231 1 15.0604 10.4463 2.65211
232 1 14.9733 10.1601 8.06898
233 1 14.7481 10.1556 13.5182
234 1 15.0281 10.2092 18.6271
235 1 14.9527 10.5972 23.8611
236 1 14.8051 15.5702 2.65562
237 1 14.9168 15.6211 8.01916
238 1 14.9779 15.7286 13.3007
239 1 14.8191 15.6863 18.5631
240 1 14.8696 15.6084 23.8439
241 1 14.8805 21.0653 2.70637
242 1 14.7251 21.0364 7.90601
243 1 14.8917 21.15 13.0824
244 1 14.9067 21.0614 18.6563
245 1 14.713 21.0533 23.8569
246 1 14.8785 26.3544 2.72863
247 1 14.9069 26.2714 8.07096
248 1 15.0486 26.4471 13.2519
249 1 14.8295 26.4703 18.5314
250 1 14.8378 26.2639 23.7731
251 1 2.41097 5.84348 5.30226
252 1 2.64147 5.89041 10.5307
253 1 2.61153 5.79471 15.6328
254 1 2.68115 5.65872 21.1508
255 1 2.89462 5.84395 26.668
256 1 2.72009 11.2897 5.28323
257 1 2.7809 11.326 10.6293
258 1 2.5374 11.1256 15.9757
259 1 2.60079 11.1048 21.1772
260 1 2.71682 11.2055 26.3728
261 1 2.67606 16.4103 5.40767
262 1 2.85227 16.1953 10.8606
263 1 2.85648 16.4197 15.7627
264 1 2.64371 16.3736 21.1352
265 1 2.59911 16.4411 26.4278
266 1 2.8072 21.7669 5.5992
267 1 2.58679 21.7107 10.5955
268 1 2.90655 21.7447 15.942
269 1 2.62661 21.8451 21.0966
270 1 2.58643 21.7625 26.4369
271 1 2.76017 26.8379 5.22492
272 1 2.85933 27.0552 10.5731
273 1 2.62758 27.2485 15.8073
274 1 2.48577 27.0475 21.2043
275 1 2.49815 27.0333 26.5613
276 1 6.20835 5.87308 5.47099
277 1 6.26087 5.7852 10.5584
278 1 6.28763 5.72761 15.8248
279 1 6.38825 5.954 20.9746
280 1 6.14701 5.76305 26.4953
281 1 6.1331 10.9945 5.41158
282 1 6.39508 11.2431 10.6159
283 1 6.23121 11.1802 16.0172
284 1 6.00393 10.918 21.2022
285 1 6.04671 11.155 26.4334
286 1 6.33357 16.4364 5.46628
287 1 6.1596 16.3989 10.7607
288 1 6.21703 16.4171 16.0926
289 1 6.1297 16.2594 21.16
290 1 6.1297 16.3893 26.5825
291 1 6.27336 21.6918 5.27876
292 1 6.46249 21.7246 10.6769
293 1 6.28354 21.6652 15.8605
294 1 6.08281 21.9869 21.2758
295 1 6.08017 21.6471 26.4291
296 1 6.0181 27.055 5.44391
297 1 5.98969 26.967 10.728
298 1 6.01062 27.104 15.8902
299 1 6.1693 26.8991 21.1132
300 1 6.14051 26.9165 26.53
301 1 9.57581 5.81417 5.39475
302 1 9.68171 6.00871 10.6483
303 1 9.87121 5.77744 15.9469
304 1 9.57834 5.98948 21.079
305 1 9.44762 5.57715 26.7093
306 1 9.81909 11.2429 5.27401
307 1 9.74366 11.1655 10.7769
308 1 9.50781 11.0483 16.1188
309 1 9.75819 11.0396 21.3299
310 1 9.63277 11.0149 26.3063
311 1 9.52587 16.4204 5.3367
312 1 9.89435 16.4658 10.6797
313 1 9.84369 16.3367 15.9345
314 1 9.73999 16.2096 21.0309
315 1 9.52654 16.3605 26.4467
316 1 9.71055 21.9431 5.45639
317 1 9.81153 21.5222 10.4584
318 1 9.80291 21.6925 15.8748
319 1 9.90721 21.7319 21.3048
320 1 9.82829 22.037 26.4715
321 1 9.88548 27.1228 5.50105
322 1 9.75649 27.1586 10.6158
323 1 9.6457 26.8187 15.7974
324 1 9.68909 27.1653 21.0705
325 1 9.69794 27.272 26.5405
326 1 13.0356 5.98838 5.31486
327 1 12.9613 5.96521 10.7099
328 1 13.1594 5.86028 15.8298
329 1 13.0804 5.71464 21.1439
330 1 13.0808 5.88499 26.5833
331 1 13.1151 11.0356 5.46867
332 1 13.3732 11.0083 10.893
333 1 13.4512 11.2528 16.0221
334 1 13.3045 11.0835 21.1875
335 1 13.0893 11.1403 26.3851
336 1 13.1767 16.4426 5.31895
337 1 13.117 16.2711 10.5286
338 1 13.3455 16.6371 15.9564
339 1 13.1038 16.2648 21.1942
340 1 13.1093 16.4722 26.4838
341 1 13.1755 21.8514 5.36682
342 1 13.1187 21.926 10.6797
343 1 13.0367 21.6522 16.0705
344 1 13.0697 21.6658 21.2297
345 1 12.888 21.9713 26.6177
346 1 13.2951 27.0139 5.43509
347 1 13.2632 27.198 10.7284
348 1 13.054 27.0927 15.9863
349 1 13.24 27.2046 21.1717
350 1 13.1837 27.1357 26.2587
351 1 16.6257 5.95335 5.29798
352 1 16.7148 5.71292 10.5732
353 1 16.4936 5.70198 15.8235
354 1 16.708 5.85018 21.3319
355 1 16.5199 6.05741 26.2399
356 1 16.5792 11.1105 5.37564
357 1 16.7759 11.0532 10.7668
358 1 16.6217 11.0801 15.9738
359 1 16.7956 10.9419 21.0713
360 1 16.9638 11.067 26.602
361 1 16.5437 16.6304 5.09147
362 1 16.7864 16.4235 10.5685
363 1 16.8585 16.6553 16.0113
364 1 16.4369 16.4456 21.3013
365 1 16.695 16.4182 26.4913
366 1 16.7208 21.8155 5.22173
367 1 16.5289 22.0059 10.4814
368 1 16.7583 21.6221 15.7361
369 1 16.5673 21.7139 21.1493
370 1 16.7505 21.8189 26.3777
371 1 16.7201 26.9439 5.44048
372 1 16.7271 27.1194 10.6254
373 1 16.9805 27.0597 15.9426
374 1 16.5714 27.1656 21.3901
375 1 16.5496 26.9296 26.2909
376 1 18.2293 3.18426 5.38082
377 1 1.02044 3.09756 10.6591
378 1 18.3565 3.3452 15.8049
379 1 1.02828 3.14495 21.3648
380 1 1.05349 3.26569 26.537
381 1 1.02034 8.58872 5.41638
382 1 1.02715 8.57516 10.6014
383 1 18.3313 8.38554 15.8476
384 1 1.07879 8.26806 21.3164
385 1 1.23248 8.39418 26.4779
386 1 0.984678 13.9026 5.29402
387 1 18.3888 13.7759 10.8622
388 1 18.2379 13.8271 16.0153
389 1 18.2405 13.7709 21.2434
390 1 0.989604 13.7951 26.4084
391 1 1.14907 19.359 5.16983
392 1 18.1508 19.2706 10.5051
393 1 1.26453 19.2083 15.8304
394 1 18.3561 18.991 21.1614
395 1 18.2754 19.0237 26.3781
396 1 1.01416 24.3067 5.47543
397 1 1.08709 24.6398 10.7
398 1 1.20341 24.4189 15.904
399 1 18.3726 24.3961 21.0528
400 1 18.456 24.5258 26.3857
401 1 4.52678 3.34006 5.43733
402 1 4.48941 3.21381 10.5819
403 1 4.35421 3.22996 15.6216
404 1 4.3122 3.08717 21.08
405 1 4.38904 3.05141 26.4134
406 1 4.3131 8.39398 5.24113
407 1 4.45756 8.60624 10.6554
408 1 4.33436 8.47629 15.8604
409 1 4.28491 8.40638 21.1012
410 1 4.58315 8.38651 26.3249
411 1 4.49763 13.863 5.37668
412 1 4.75072 13.7203 10.548
413 1 4.70503 13.7218 15.918
414 1 4.34619 13.6488 21.3433
415 1 4.33294 13.8801 26.2417
416 1 4.50861 18.952 5.60289
417 1 4.70264 19.1894 10.6872
418 1 4.62599 19.1334 16.003
419 1 4.30825 19.0518 21.2255
420 1 4.35576 18.9594 26.4034
421 1 4.60903 24.3087 5.37277
422 1 4.51923 24.2709 10.7268
423 1 4.64643 24.3406 15.8769
424 1 4.32087 24.4299 21.1383
425 1 4.41193 24.3201 26.5692
426 1 7.83174 3.09421 5.46434
427 1 7.93624 3.01131 10.6211
428 1 7.94475 3.08885 15.8227
429 1 7.85265 3.12256 21.0441
430 1 7.53682 3.05895 26.579
431 1 8.0105 8.46102 5.29694
432 1 7.82177 8.56455 10.6619
433 1 7.88011 8.4597 15.7717
434 1 8.02787 8.52064 21.4757
435 1 7.99163 8.28682 26.2301
436 1 7.95703 13.6826 5.28317
437 1 8.23203 14.0037 10.8998
438 1 8.02496 13.7344 16.0299
439 1 7.99844 13.6053 21.2962
440 1 7.80666 13.7327 26.2677
441 1 8.08925 19.0642 5.29938
442 1 8.01957 18.9704 10.8019
443 1 8.00148 19.0102 16.0719
444 1 7.6849 19.2488 21.1309
445 1 7.75094 19.062 26.2982
446 1 7.88371 24.3788 5.47584
447 1 7.92635 24.4874 10.6806
448 1 7.9574 24.3158 15.8842
449 1 7.98017 24.4422 21.2107
450 1 8.09616 24.5456 26.4869
451 1 11.3024 3.31136 5.53388
452 1 11.3471 3.18553 10.7591
453 1 11.4867 3.11143 15.8846
454 1 11.1206 3.38261 21.1032
455 1 11.5561 3.24967 26.3767
456 1 11.3123 8.55339 5.36185
457 1 11.4573 8.61342 10.838
458 1 11.3318 8.62779 15.9257
459 1 11.5127 8.48049 21.2352
460 1 11.3172 8.42631 26.5672
461 1 11.5837 13.6574 5.46892
462 1 11.5877 13.6114 10.7868
463 1 11.3447 13.6044 16.0662
464 1 11.4077 13.6071 21.29
465 1 11.3157 13.7163 26.305
466 1 11.3616 19.0679 5.30625
467 1 11.6337 19.1051 10.678
468 1 11.3532 19.0031 16.1887
469 1 11.4695 18.9837 21.129
470 1 11.3389 19.2038 26.5794
471 1 11.4525 24.4302 5.51577
472 1 11.4681 24.4456 10.6061
473 1 11.4959 24.3366 16.0375
474 1 11.6189 24.46 21.1546
475 1 11.4261 24.7161 26.3469
476 1 15.191 3.08061 5.40706
477 1 14.6361 3.25923 10.6858
478 1 15.0804 2.88533 15.8304
479 1 15.0548 3.38873 21.1398
480 1 14.7663 3.29398 26.2472
481 1 14.9154 8.50838 5.22314
482 1 15.0562 8.24596 10.6157
483 1 15.0185 8.53217 16.0856
484 1 14.7235 8.47106 21.212
485 1 14.7754 8.56762 26.3137
486 1 15.1017 13.8303 5.43803
487 1 15.0208 13.7623 10.9375
488 1 15.0575 13.9785 15.9388
489 1 14.9269 13.7788 21.3525
490 1 15.0027 13.6257 26.323
491 1 14.8268 19.121 5.33553
492 1 14.7368 19.1764 10.6479
493 1 14.99 19.1669 16.0492
494 1 14.6938 19.1082 21.335
495 1 14.9696 19.1209 26.5703
496 1 14.985 24.2861 5.27288
497 1 14.9068 24.4544 10.5752
498 1 15.1396 24.3925 15.9857
499 1 14.8993 24.3166 21.279
500 1 14.8549 24.3604 26.4667
ITEM: TIMESTEP
200
ITEM: NUMBER OF ATOMS
500
ITEM: BOX BOUNDS pp pp pp
1.1660086492170223e+00 1.8194106640782966e+01
1.7749320453133248e+00 2.7695594654686694e+01
1.7590017559994371e+00 2.7447022414000564e+01
ITEM: ATOMS id type x y z
1 1 2.81777 2.81722 3.08417
2 1 2.93779 2.80897 8.24126
3 1 2.83275 2.79631 13.3712
4 1 2.86887 2.76924 18.446
5 1 2.8709 2.81335 23.5698
6 1 2.89442 7.90205 3.11631