LAMMPS (22 Jul 2025 - Update 3)

units           metal
atom_style      charge
boundary        p p p

read_data       data_mytm.lammps
Reading data file ...
  orthogonal box = (0 0 0) to (23.097001 23.097001 23.097001)
  1 by 2 by 3 MPI processor grid
  reading atoms ...
  1000 atoms
  read_data CPU = 0.003 seconds

set		type 1 charge 1.2
Setting atom values ...
  500 settings made for charge
set		type 2 charge -1.2
Setting atom values ...
  500 settings made for charge

pair_style	buck/coul/long 10.0

pair_coeff	1 1 38868.5 0.2066 43.773
pair_coeff	2 2 43469.3723 0.2140 5.0840
pair_coeff	1 2 12655.4 0.2089 36.798

kspace_style	pppm 1e-5

neighbor	2.0 bin
neigh_modify	delay 10 every 1 check yes

velocity	all create 4285.15625 134563

# Thermodynamic variables
variable        t equal temp
variable        p equal press
variable        v equal vol
variable        s equal step

# 输出热力学量：两列（step value）
fix tprint all print 1 "${s} ${t}" file Temperature_MyTm screen no
fix pprint all print 1 "${s} ${p}" file Pressure_MyTm   screen no
fix vprint all print 1 "${s} ${v}" file Volume_MyTm     screen no

# 动力学
timestep        0.001
thermo          100
thermo_style    custom step temp press vol pe ke etotal

# NVT 升温过程
#fix myNVT all npt temp 4285.15625 4285.15625  0.1 iso 0.0001 0.0001 1
#fix myNVT all nph iso 0.0001 0.0001 1
fix myNVT all nve
dump mydump all custom 100 dump_mytm.lammpstrj id type x y z
dump_modify mydump sort id

run 40000
PPPM initialization ...
  using 12-bit tables for long-range coulomb
  G vector (1/distance) = 0.32487046
  grid = 27 27 27
  stencil order = 5
  estimated absolute RMS force accuracy = 0.00013190138
  estimated relative force accuracy = 9.1600437e-06
  using double precision KISS FFT
  3d grid and FFT values/proc = 11424 3402
Generated 0 of 1 mixed pair_coeff terms from geometric mixing rule
Neighbor list info ...
  update: every = 1 steps, delay = 10 steps, check = yes
  max neighbors/atom: 2000, page size: 100000
  master list distance cutoff = 12
  ghost atom cutoff = 12
  binsize = 6, bins = 4 4 4
  1 neighbor lists, perpetual/occasional/extra = 1 0 0
  (1) pair buck/coul/long, perpetual
      attributes: half, newton on
      pair build: half/bin/atomonly/newton
      stencil: half/bin/3d
      bin: standard
Per MPI rank memory allocation (min/avg/max) = 4.554 | 4.569 | 4.586 Mbytes
   Step          Temp          Press          Volume         PotEng         KinEng         TotEng    
         0   4285.1562      11778.961      12321.591     -7682.8661      553.34602     -7129.5201    
       100   4129.7186      11433.289      12321.591     -7662.7996      533.27421     -7129.5254    
       200   4146.5957      13252.943      12321.591     -7664.9851      535.45358     -7129.5315    
       300   4154.1946      14753.631      12321.591     -7665.9773      536.43482     -7129.5424    
       400   4003.3986      17032.673      12321.591     -7646.4429      516.9624      -7129.4805    
       500   4099.0259      12047.391      12321.591     -7658.76        529.31084     -7129.4491    
       600   4037.9304      12717.259      12321.591     -7650.9443      521.42153     -7129.5228    
       700   4018.917       17688.557      12321.591     -7648.4908      518.96631     -7129.5245    
       800   4129.0482      20587.384      12321.591     -7662.7222      533.18765     -7129.5345    
       900   4199.3385      13673.4        12321.591     -7671.7846      542.2643      -7129.5203    
      1000   4086.9818      12822.753      12321.591     -7657.2551      527.75557     -7129.4995    
      1100   4231.8957      5708.5943      12321.591     -7676.0146      546.46843     -7129.5461    
      1200   4115.6011      17258.845      12321.591     -7660.9865      531.45122     -7129.5352    
      1300   4096.2686      13682.459      12321.591     -7658.4323      528.95478     -7129.4775    
      1400   4088.2146      20336.611      12321.591     -7657.4008      527.91477     -7129.486     
      1500   4075.0469      18301.71       12321.591     -7655.7286      526.21441     -7129.5142    
      1600   3908.2602      21535.918      12321.591     -7634.1356      504.6771      -7129.4585    
      1700   4170.2365      11339.822      12321.591     -7668.0286      538.50634     -7129.5222    
      1800   3995.9756      23224.603      12321.591     -7645.4779      516.00386     -7129.474     
      1900   4081.4143      15641.506      12321.591     -7656.5624      527.03664     -7129.5257    
      2000   4239.7257      9500.0157      12321.591     -7677.0229      547.47953     -7129.5434    
      2100   4145.3029      14584.62       12321.591     -7664.8113      535.28663     -7129.5246    
      2200   4086.3966      20599.294      12321.591     -7657.2092      527.68        -7129.5292    
      2300   3973.024       18968.158      12321.591     -7642.5008      513.0401      -7129.4607    
      2400   4142.1118      13999.112      12321.591     -7664.3712      534.87456     -7129.4966    
      2500   3963.2884      19618.252      12321.591     -7641.2439      511.78293     -7129.461     
      2600   3880.8451      26007.654      12321.591     -7630.6149      501.13696     -7129.4779    
      2700   3938.5821      26674.372      12321.591     -7638.1213      508.5926      -7129.5288    
      2800   4100.3711      17110.733      12321.591     -7659.0268      529.48455     -7129.5422    
      2900   4124.8024      16500.816      12321.591     -7662.1578      532.63938     -7129.5185    
      3000   4024.3344      23193.305      12321.591     -7649.1529      519.66586     -7129.4871    
      3100   3995.7352      16239.388      12321.591     -7645.4634      515.97282     -7129.4906    
      3200   4099.233       17809.876      12321.591     -7658.8548      529.33758     -7129.5173    
      3300   4042.0888      21305.179      12321.591     -7651.4788      521.95851     -7129.5203    
      3400   4092.6279      16503.156      12321.591     -7657.9854      528.48466     -7129.5007    
      3500   4077.0486      22011.679      12321.591     -7656.0395      526.47289     -7129.5666    
      3600   4075.9459      12068.573      12321.591     -7655.8076      526.3305      -7129.4771    
      3700   4005.6777      19143.108      12321.591     -7646.7554      517.25671     -7129.4986    
      3800   3976.5574      21901.97       12321.591     -7642.9916      513.49637     -7129.4952    
      3900   3992.8586      26981.626      12321.591     -7645.1189      515.60137     -7129.5176    
      4000   3916.6427      28874.019      12321.591     -7635.2609      505.75954     -7129.5014    
      4100   3853.782       23090.989      12321.591     -7627.0856      497.64228     -7129.4434    
      4200   4068.224       26246.517      12321.591     -7654.8735      525.33337     -7129.5401    
      4300   4119.2429      17100.548      12321.591     -7661.4359      531.92148     -7129.5144    
      4400   3958.7539      22845.319      12321.591     -7640.7429      511.19739     -7129.5455    
      4500   4031.0476      18387.346      12321.591     -7650.0866      520.53274     -7129.5539    
      4600   3974.2126      21726.083      12321.591     -7642.6993      513.19359     -7129.5057    
      4700   3973.2027      19409.018      12321.591     -7642.5734      513.06318     -7129.5102    
      4800   3971.9131      29075.474      12321.591     -7642.4034      512.89665     -7129.5067    
      4900   4035.8166      18840.967      12321.591     -7650.6548      521.14857     -7129.5062    
      5000   3999.5134      22200.696      12321.591     -7645.9896      516.46071     -7129.5289    
      5100   4020.9861      18639.657      12321.591     -7648.7398      519.2335      -7129.5063    
      5200   4050.6563      27128.778      12321.591     -7652.5916      523.06483     -7129.5268    
      5300   3951.4784      25519.1        12321.591     -7639.7397      510.25791     -7129.4818    
      5400   3923.3275      33365.63       12321.591     -7636.1062      506.62275     -7129.4834    
      5500   4115.8777      24121.21       12321.591     -7661.0515      531.48693     -7129.5646    
      5600   4065.4123      21033.628      12321.591     -7654.485       524.97029     -7129.5147    
      5700   4078.4699      21706.899      12321.591     -7656.1759      526.65643     -7129.5195    
      5800   4003.7011      19624.087      12321.591     -7646.4897      517.00146     -7129.4883    
      5900   4010.9322      19695.866      12321.591     -7647.4996      517.93523     -7129.5643    
      6000   4004.7827      23454.06       12321.591     -7646.641       517.14113     -7129.4999    
      6100   3911.2122      20175.421      12321.591     -7634.5337      505.05829     -7129.4754    
      6200   4044.021       22767.982      12321.591     -7651.7792      522.20801     -7129.5712    
      6300   3983.0264      18775.927      12321.591     -7643.8067      514.33173     -7129.475     
      6400   3957.8141      22402.886      12321.591     -7640.6167      511.07603     -7129.5407    
      6500   4052.8479      25254.799      12321.591     -7652.8767      523.34784     -7129.5289    
      6600   4064.9659      19632.182      12321.591     -7654.4025      524.91264     -7129.4898    
      6700   4063.4389      23037.751      12321.591     -7654.2834      524.71547     -7129.5679    
      6800   3965.4281      21636.037      12321.591     -7641.5795      512.05924     -7129.5202    
      6900   3986.3979      24555.948      12321.591     -7644.3013      514.76709     -7129.5342    
      7000   3964.2899      25787.184      12321.591     -7641.4427      511.91226     -7129.5304    
      7100   4058.9494      21920.623      12321.591     -7653.6736      524.13573     -7129.5378    
      7200   3980.2045      27094.169      12321.591     -7643.5169      513.96733     -7129.5496    
      7300   3911.5685      27768.645      12321.591     -7634.5876      505.1043      -7129.4833    
      7400   4004.7389      24744.215      12321.591     -7646.6639      517.13548     -7129.5284    
      7500   3966.6905      28531.286      12321.591     -7641.6944      512.22225     -7129.4721    
      7600   3974.432       20897.065      12321.591     -7642.7569      513.22193     -7129.535     
      7700   3946.9925      24932.837      12321.591     -7639.2003      509.67863     -7129.5216    
      7800   3958.5672      32470.495      12321.591     -7640.7736      511.17328     -7129.6003    
      7900   3847.4724      31886.688      12321.591     -7626.3859      496.82752     -7129.5583    
      8000   3935.7142      25714.172      12321.591     -7637.7787      508.22226     -7129.5565    
      8100   3967.8042      34416.329      12321.591     -7641.8676      512.36606     -7129.5016    
      8200   3838.1451      23102.448      12321.591     -7625.1172      495.62308     -7129.4942    
      8300   3933.6885      29976.846      12321.591     -7637.4899      507.96067     -7129.5292    
      8400   4059.2173      19748.885      12321.591     -7653.7061      524.17033     -7129.5358    
      8500   3882.7625      29221.433      12321.591     -7630.9253      501.38455     -7129.5408    
      8600   3860.5315      35093.781      12321.591     -7628.0317      498.51385     -7129.5179    
      8700   3737.8968      47820.732      12321.591     -7612.1672      482.67792     -7129.4893    
      8800   3744.5583      36908.786      12321.591     -7613.0357      483.53812     -7129.4976    
      8900   3884.0846      37033.8        12321.591     -7631.1141      501.55528     -7129.5588    
      9000   3820.585       37941.878      12321.591     -7622.8718      493.35552     -7129.5163    
      9100   3837.9557      42545.443      12321.591     -7625.1035      495.59862     -7129.5049    
      9200   3740.0452      38117.456      12321.591     -7612.4357      482.95534     -7129.4804    
      9300   3755.1389      41218.166      12321.591     -7614.39        484.90441     -7129.4856    
      9400   3705.0004      49860.27       12321.591     -7607.9419      478.42998     -7129.5119    
      9500   3828.3833      34996.786      12321.591     -7623.9168      494.36252     -7129.5543    
      9600   3876.6218      36623.158      12321.591     -7630.1299      500.59161     -7129.5383    
      9700   3868.644       34550.105      12321.591     -7629.0727      499.56142     -7129.5112    
      9800   3780.1424      32361.298      12321.591     -7617.6388      488.13313     -7129.5056    
      9900   3834.9902      42501.07       12321.591     -7624.7519      495.21568     -7129.5363    
     10000   3664.9956      41801.467      12321.591     -7602.694       473.26413     -7129.4299    
     10100   3732.6428      42420.504      12321.591     -7611.5078      481.99947     -7129.5083    
     10200   3691.333       39065.892      12321.591     -7606.1882      476.6651      -7129.5231    
     10300   3734.4679      44262.795      12321.591     -7611.7919      482.23515     -7129.5568    
     10400   3769.0399      52025.992      12321.591     -7616.2136      486.69945     -7129.5142    
     10500   3874.269       40370.766      12321.591     -7629.8326      500.28779     -7129.5448    
     10600   3755.554       40684.519      12321.591     -7614.4868      484.95802     -7129.5288    
     10700   3793.5357      33073.292      12321.591     -7619.3771      489.86263     -7129.5145    
     10800   3812.3814      32610.631      12321.591     -7621.8286      492.29619     -7129.5324    
     10900   3815.5541      32574.662      12321.591     -7622.2183      492.70588     -7129.5124    
     11000   3870.5424      45347.406      12321.591     -7629.3034      499.80656     -7129.4968    
     11100   3743.6773      38891.326      12321.591     -7612.9442      483.42436     -7129.5199    
     11200   4055.3923      28898.17       12321.591     -7653.2371      523.6764      -7129.5607    
     11300   3812.6288      41978.67       12321.591     -7621.8478      492.32813     -7129.5196    
     11400   3879.0449      42473.636      12321.591     -7630.4384      500.9045      -7129.5339    
     11500   3957.2323      34598.489      12321.591     -7640.5474      511.0009      -7129.5465    
     11600   3886.0861      31286.161      12321.591     -7631.2923      501.81374     -7129.4785    
     11700   3799.8167      36617.533      12321.591     -7620.2074      490.6737      -7129.5337    
     11800   3973.5596      29392.365      12321.591     -7642.6772      513.10927     -7129.5679    
     11900   4065.0347      19373.816      12321.591     -7654.482       524.92153     -7129.5605    
     12000   3919.5912      31874.557      12321.591     -7635.6611      506.14028     -7129.5208    
     12100   3887.3705      29693.138      12321.591     -7631.5154      501.97959     -7129.5359    
     12200   3988.2015      23068.545      12321.591     -7644.5002      514.99999     -7129.5003    
     12300   3863.951       28846.074      12321.591     -7628.4751      498.95542     -7129.5197    
     12400   3802.2804      38014.375      12321.591     -7620.5005      490.99184     -7129.5086    
     12500   3750.512       33408.415      12321.591     -7613.817       484.30693     -7129.5101    
     12600   3816.8408      36792.335      12321.591     -7622.3283      492.87203     -7129.4563    
     12700   3777.6653      35547.238      12321.591     -7617.3029      487.81327     -7129.4896    
     12800   3887.1191      38599.67       12321.591     -7631.4562      501.94713     -7129.5091    
     12900   3701.7688      43950.767      12321.591     -7607.5054      478.01268     -7129.4927    
     13000   3759.0881      38725.8        12321.591     -7614.9622      485.41437     -7129.5478    
     13100   3793.3898      41760.596      12321.591     -7619.3832      489.84379     -7129.5394    
     13200   3745.9163      32089.632      12321.591     -7613.2333      483.71349     -7129.5198    
     13300   3749.4199      32537.996      12321.591     -7613.7224      484.16591     -7129.5565    
     13400   3757.0096      39685.17       12321.591     -7614.6784      485.14597     -7129.5324    
     13500   3810.786       25092.907      12321.591     -7621.5804      492.09017     -7129.4902    
     13600   3694.9333      34450.96       12321.591     -7606.6233      477.13001     -7129.4933    
     13700   3811.5969      41541.197      12321.591     -7621.7266      492.19489     -7129.5317    
     13800   3845.4737      38722.122      12321.591     -7626.14        496.56942     -7129.5706    
     13900   3880.5716      26821.275      12321.591     -7630.628       501.10164     -7129.5264    
     14000   3771.8189      35259.585      12321.591     -7616.5912      487.05831     -7129.5328    
     14100   3903.2965      27052.891      12321.591     -7633.5829      504.03613     -7129.5468    
     14200   3831.9108      39114.62       12321.591     -7624.3134      494.81803     -7129.4954    
     14300   3853.8504      33023.475      12321.591     -7627.1998      497.65111     -7129.5487    
     14400   3784.2815      30276.621      12321.591     -7618.2195      488.66762     -7129.5519    
     14500   3817.6733      31097.304      12321.591     -7622.4696      492.97953     -7129.4901    
     14600   3913.3705      38725.634      12321.591     -7634.8642      505.337       -7129.5272    
     14700   3693.9056      40608.532      12321.591     -7606.4949      476.9973      -7129.4976    
     14800   3902.6383      33525.361      12321.591     -7633.5005      503.95113     -7129.5493    
     14900   3903.383       29506.836      12321.591     -7633.5695      504.0473      -7129.5222    
     15000   3924.2976      34847.039      12321.591     -7636.2927      506.74802     -7129.5447    
     15100   3891.6093      28039.796      12321.591     -7632.0579      502.52696     -7129.5309    
     15200   3902.0572      28493.812      12321.591     -7633.3948      503.8761      -7129.5187    
     15300   3946.9746      32012.414      12321.591     -7639.2273      509.67632     -7129.551     
     15400   3930.0508      31023.372      12321.591     -7637.0332      507.49093     -7129.5422    
     15500   3846.0247      34378.504      12321.591     -7626.193       496.64057     -7129.5524    
     15600   3862.6368      34405.567      12321.591     -7628.2838      498.78571     -7129.4981    
     15700   3868.5284      39332.255      12321.591     -7629.1237      499.54649     -7129.5772    
     15800   3635.7877      36774.379      12321.591     -7599.0368      469.49249     -7129.5443    
     15900   3831.6327      33486.104      12321.591     -7624.3194      494.78212     -7129.5373    
     16000   3750.1977      39010.278      12321.591     -7613.7662      484.26635     -7129.4998    
     16100   3711.6355      39884.565      12321.591     -7608.806       479.28678     -7129.5192    
     16200   3719.9387      40990.553      12321.591     -7609.8991      480.35897     -7129.5402    
     16300   3794.1119      41998.315      12321.591     -7619.4712      489.93703     -7129.5341    
     16400   3676.1127      45446.068      12321.591     -7604.1956      474.69968     -7129.4959    
     16500   3742.9734      40595.571      12321.591     -7612.8389      483.33347     -7129.5054    
     16600   3802.6727      44741.3        12321.591     -7620.606       491.04248     -7129.5635    
     16700   3757.028       28538.841      12321.591     -7614.638       485.14834     -7129.4897    
     16800   3747.4793      37082.802      12321.591     -7613.4445      483.91531     -7129.5292    
     16900   3832.305       42358.501      12321.591     -7624.3717      494.86894     -7129.5027    
     17000   3759.18        36671.438      12321.591     -7614.9037      485.42623     -7129.4775    
     17100   3789.925       37945.621      12321.591     -7618.966       489.39637     -7129.5696    
     17200   3772.2933      43424.141      12321.591     -7616.623       487.11957     -7129.5034    
     17300   3752.6488      41375.554      12321.591     -7614.1066      484.58285     -7129.5237    
     17400   3895.9138      34112.831      12321.591     -7632.5996      503.08279     -7129.5169    
     17500   3843.597       36354.665      12321.591     -7625.8563      496.32708     -7129.5292    
     17600   3820.0115      32781.539      12321.591     -7622.8414      493.28147     -7129.5599    
     17700   3833.2658      36882.245      12321.591     -7624.5572      494.99301     -7129.5641    
     17800   3858.5439      40638.192      12321.591     -7627.8155      498.25718     -7129.5583    
     17900   3730.6337      46253.299      12321.591     -7611.2457      481.74003     -7129.5057    
     18000   3713.585       43632.749      12321.591     -7609.088       479.53851     -7129.5495    
     18100   3763.757       38607.395      12321.591     -7615.5257      486.01727     -7129.5084    
     18200   3836.9484      39102.734      12321.591     -7624.9956      495.46854     -7129.527     
     18300   3847.5115      40207.728      12321.591     -7626.3474      496.83256     -7129.5148    
     18400   3877.4364      36047.044      12321.591     -7630.2536      500.6968      -7129.5568    
     18500   3776.8655      43311.006      12321.591     -7617.2619      487.70999     -7129.5519    
     18600   3873.6122      40277.456      12321.591     -7629.765       500.20298     -7129.562     
     18700   3763.8467      31773.822      12321.591     -7615.5275      486.02886     -7129.4987    
     18800   3824.7263      41780.183      12321.591     -7623.3739      493.8903      -7129.4836    
     18900   3951.9966      33434.642      12321.591     -7639.8904      510.32482     -7129.5656    
     19000   3843.0595      46131.514      12321.591     -7625.7668      496.25767     -7129.5091    
     19100   3715.6901      44246.47       12321.591     -7609.3673      479.81035     -7129.557     
     19200   3821.0788      40233.391      12321.591     -7622.9516      493.41929     -7129.5323    
     19300   3736.1296      40443.661      12321.591     -7611.9869      482.44972     -7129.5372    
     19400   3861.2613      35285.465      12321.591     -7628.1469      498.60809     -7129.5388    
     19500   3867.8305      33004.718      12321.591     -7628.9492      499.45637     -7129.4929    
     19600   3853.5434      34132.283      12321.591     -7627.1103      497.61146     -7129.4988    
     19700   3829.6526      33731.17       12321.591     -7624.0744      494.52643     -7129.548     
     19800   3952.72        30838.082      12321.591     -7639.9623      510.41823     -7129.544     
     19900   3890.8538      29056.833      12321.591     -7631.9992      502.4294      -7129.5698    
     20000   3792.2861      14909.593      12321.591     -7619.1935      489.70126     -7129.4923    
     20100   3973.3424      24879.819      12321.591     -7642.6253      513.08123     -7129.5441    
     20200   3954.5777      26874.948      12321.591     -7640.216       510.65811     -7129.5579    
     20300   3820.3499      21680.498      12321.591     -7622.7849      493.32516     -7129.4597    
     20400   3899.7164      26602.955      12321.591     -7633.1471      503.57383     -7129.5732    
     20500   3951.741       29904.5        12321.591     -7639.8214      510.29181     -7129.5296    
     20600   3876.7564      33707.033      12321.591     -7630.0949      500.60898     -7129.4859    
     20700   4014.6948      29110.497      12321.591     -7647.9676      518.4211      -7129.5465    
     20800   3821.3669      28246.296      12321.591     -7622.9699      493.45649     -7129.5134    
     20900   4067.4378      23497.699      12321.591     -7654.8011      525.23184     -7129.5693    
     21000   3935.1777      31792.362      12321.591     -7637.6595      508.15298     -7129.5065    
     21100   3895.1776      28078.976      12321.591     -7632.5106      502.98773     -7129.5229    
     21200   3931.8044      25635.64       12321.591     -7637.2882      507.71739     -7129.5708    
     21300   3856.4647      37836.553      12321.591     -7627.4692      497.98869     -7129.4805    
     21400   3978.9911      32471.666      12321.591     -7643.3508      513.81064     -7129.5402    
     21500   4043.1122      36543.629      12321.591     -7651.672       522.09066     -7129.5814    
     21600   3965.6698      22102.621      12321.591     -7641.6568      512.09045     -7129.5664    
     21700   4045.2869      22934.397      12321.591     -7651.9177      522.37147     -7129.5462    
     21800   3914.1186      26786.148      12321.591     -7634.9591      505.4336      -7129.5255    
     21900   3961.8403      31858.517      12321.591     -7641.1525      511.59594     -7129.5566    
     22000   3999.2882      23810.346      12321.591     -7645.9607      516.43163     -7129.5291    
     22100   3847.8098      22844.591      12321.591     -7626.4032      496.87108     -7129.5321    
     22200   3850.6015      24220.673      12321.591     -7626.776       497.23158     -7129.5445    
     22300   3919.074       27423.336      12321.591     -7635.6077      506.07349     -7129.5342    
     22400   3995.6066      20954.667      12321.591     -7645.5009      515.95621     -7129.5447    
     22500   3913.3034      20611.331      12321.591     -7634.8489      505.32833     -7129.5206    
     22600   3889.0446      20704.535      12321.591     -7631.7308      502.19578     -7129.5351    
     22700   4021.4159      15598.488      12321.591     -7648.8372      519.28899     -7129.5482    
     22800   4002.536       28157.654      12321.591     -7646.4572      516.85101     -7129.6061    
     22900   4095.5362      27054.453      12321.591     -7658.4299      528.86022     -7129.5697    
     23000   3928.8199      29999.023      12321.591     -7636.8721      507.33199     -7129.5401    
     23100   3948.0336      28875.457      12321.591     -7639.4001      509.81308     -7129.587     
     23200   3888.0078      25217.308      12321.591     -7631.5941      502.06188     -7129.5323    
     23300   4029.1692      25534.758      12321.591     -7649.8994      520.29019     -7129.6092    
     23400   3891.9895      29885.314      12321.591     -7632.1064      502.57604     -7129.5303    
     23500   3853.1256      31637.435      12321.591     -7627.1073      497.55751     -7129.5498    
     23600   3842.958       31310.804      12321.591     -7625.7715      496.24456     -7129.527     
     23700   3892.4773      35183.959      12321.591     -7632.1953      502.63904     -7129.5563    
     23800   3909.883       35556.04       12321.591     -7634.4412      504.88665     -7129.5545    
     23900   3880.1517      31539.194      12321.591     -7630.6081      501.04742     -7129.5606    
     24000   3939.7078      26405.166      12321.591     -7638.2474      508.73796     -7129.5095    
     24100   3936.7328      29660.543      12321.591     -7637.8821      508.35379     -7129.5283    
     24200   3856.4333      28424.058      12321.591     -7627.537       497.98465     -7129.5523    
     24300   4005.6055      30804.726      12321.591     -7646.8105      517.24739     -7129.5631    
     24400   4031.4998      30752.677      12321.591     -7650.1201      520.59114     -7129.529     
     24500   4009.2534      25190.569      12321.591     -7647.297       517.71844     -7129.5786    
     24600   4085.0983      25090.874      12321.591     -7657.108       527.51236     -7129.5956    
     24700   4045.2036      16177.258      12321.591     -7651.927       522.36072     -7129.5663    
     24800   4006.0396      19760.759      12321.591     -7646.8893      517.30344     -7129.5858    
     24900   4091.4407      24101.538      12321.591     -7657.8813      528.33135     -7129.55      
     25000   4045.4433      23986.963      12321.591     -7651.9884      522.39167     -7129.5968    
     25100   3999.3568      27075.885      12321.591     -7646.0197      516.44049     -7129.5792    
     25200   4034.4595      25448.351      12321.591     -7650.5691      520.97333     -7129.5958    
     25300   4091.7639      22385.84       12321.591     -7657.9743      528.3731      -7129.6012    
     25400   3984.4372      31027.481      12321.591     -7644.0742      514.5139      -7129.5603    
     25500   3993.2721      21075.395      12321.591     -7645.2133      515.65476     -7129.5585    
     25600   4071.2351      22267.374      12321.591     -7655.2784      525.72218     -7129.5563    
     25700   3929.0167      35497.734      12321.591     -7636.8721      507.35741     -7129.5147    
     25800   4115.7454      16186.757      12321.591     -7661.0455      531.46984     -7129.5756    
     25900   4158.2139      13520.004      12321.591     -7666.5313      536.95384     -7129.5774    
     26000   3899.69        29057.662      12321.591     -7633.0515      503.57042     -7129.4811    
     26100   4057.8675      21093.908      12321.591     -7653.5043      523.99602     -7129.5083    
     26200   4016.0691      21258.796      12321.591     -7648.1127      518.59856     -7129.5141    
     26300   3952.249       32667.891      12321.591     -7639.9125      510.35742     -7129.5551    
     26400   3992.0255      25365.614      12321.591     -7645.0474      515.49378     -7129.5536    
     26500   3960.7921      25196.463      12321.591     -7641.0106      511.46059     -7129.55      
     26600   4134.6321      21102.127      12321.591     -7663.4806      533.90871     -7129.5719    
     26700   4135.8946      17654.747      12321.591     -7663.6245      534.07173     -7129.5528    
     26800   4019.3165      28141.971      12321.591     -7648.57        519.01789     -7129.5521    
     26900   3913.6974      30363.36       12321.591     -7634.9324      505.3792      -7129.5532    
     27000   4001.347       22561.931      12321.591     -7646.1874      516.69747     -7129.4899    
     27100   4078.522       21318.438      12321.591     -7656.2335      526.66315     -7129.5703    
     27200   4050.741       23904.05       12321.591     -7652.6121      523.07577     -7129.5363    
     27300   3953.011       30174.995      12321.591     -7640.0038      510.45581     -7129.548     
     27400   4023.5997      15516.082      12321.591     -7649.1361      519.57099     -7129.5651    
     27500   3960.5636      21874.337      12321.591     -7640.9443      511.43108     -7129.5132    
     27600   3952.1775      25727.263      12321.591     -7639.8425      510.34818     -7129.4943    
     27700   3977.2897      26106.655      12321.591     -7643.1904      513.59094     -7129.5995    
     27800   3994.1529      26845.398      12321.591     -7645.3456      515.7685      -7129.5771    
     27900   3782.531       32208.531      12321.591     -7617.9027      488.44158     -7129.4611    
     28000   4024.7724      18814.153      12321.591     -7649.257       519.72243     -7129.5346    
     28100   3880.3467      29213.126      12321.591     -7630.5697      501.0726      -7129.4971    
     28200   4146.2294      16391.377      12321.591     -7664.9918      535.40627     -7129.5856    
     28300   3893.0611      30548.419      12321.591     -7632.2438      502.71443     -7129.5294    
     28400   3832.3545      28009.034      12321.591     -7624.3923      494.87532     -7129.5169    
     28500   3987.2417      15897.085      12321.591     -7644.3851      514.87605     -7129.509     
     28600   4010.1051      26015.461      12321.591     -7647.3981      517.82842     -7129.5697    
     28700   3948.6224      35695.255      12321.591     -7639.4219      509.88911     -7129.5328    
     28800   3835.1103      33051.864      12321.591     -7624.7726      495.23118     -7129.5414    
     28900   3957.5053      31732.707      12321.591     -7640.5614      511.03616     -7129.5252    
     29000   4024.3419      20600.882      12321.591     -7649.2607      519.66683     -7129.5938    
     29100   4051.4804      29882.423      12321.591     -7652.7224      523.17126     -7129.5511    
     29200   3925.1435      36436.627      12321.591     -7636.4222      506.85726     -7129.565     
     29300   3923.0105      35913.357      12321.591     -7636.1268      506.58181     -7129.545     
     29400   4037.2799      21544.752      12321.591     -7650.9314      521.33753     -7129.5938    
     29500   4130.3483      25149.28       12321.591     -7662.9352      533.35553     -7129.5797    
     29600   3805.4215      28165.409      12321.591     -7620.8818      491.39744     -7129.4844    
     29700   3851.9974      36169.756      12321.591     -7626.9233      497.41184     -7129.5115    
     29800   3856.4286      30428.515      12321.591     -7627.5264      497.98404     -7129.5423    
     29900   3928.1947      26685.36       12321.591     -7636.7573      507.25126     -7129.506     
     30000   3899.8645      38250.09       12321.591     -7633.1661      503.59295     -7129.5732    
     30100   3874.5324      23625.671      12321.591     -7629.8826      500.3218      -7129.5608    
     30200   3953.1609      21533.802      12321.591     -7640.044       510.47517     -7129.5688    
     30300   3899.0718      31418.021      12321.591     -7633.042       503.49059     -7129.5514    
     30400   3757.068       42901.372      12321.591     -7614.6864      485.15352     -7129.5329    
     30500   3873.5892      23044.817      12321.591     -7629.7352      500.2         -7129.5352    
     30600   3988.9797      20207.293      12321.591     -7644.6449      515.10048     -7129.5444    
     30700   3902.201       30634.773      12321.591     -7633.3992      503.89466     -7129.5046    
     30800   4017.4258      25162.863      12321.591     -7648.3482      518.77374     -7129.5745    
     30900   3905.095       24791.259      12321.591     -7633.8339      504.26838     -7129.5655    
     31000   3907.9387      29240.174      12321.591     -7634.1844      504.63558     -7129.5488    
     31100   3854.1245      23872.34       12321.591     -7627.2071      497.68651     -7129.5206    
     31200   3982.3964      27059.075      12321.591     -7643.8097      514.25037     -7129.5594    
     31300   3973.5614      26980.732      12321.591     -7642.6804      513.1095      -7129.5709    
     31400   3973.7877      26853.025      12321.591     -7642.6976      513.13873     -7129.5589    
     31500   3902.8088      32580.509      12321.591     -7633.5198      503.97316     -7129.5467    
     31600   3886.9304      32853.453      12321.591     -7631.4746      501.92277     -7129.5518    
     31700   3829.3746      29797.742      12321.591     -7624.0614      494.49053     -7129.5708    
     31800   3952.3973      25308.692      12321.591     -7639.8936      510.37657     -7129.517     
     31900   3806.6101      35871.145      12321.591     -7621.1036      491.55093     -7129.5526    
     32000   3908.995       31045.118      12321.591     -7634.3306      504.77198     -7129.5587    
     32100   3870.7709      30611.189      12321.591     -7629.374       499.83607     -7129.5379    
     32200   3942.8475      29304.239      12321.591     -7638.6792      509.14339     -7129.5358    
     32300   3819.4236      40954.051      12321.591     -7622.7263      493.20556     -7129.5207    
     32400   3962.8134      28232.159      12321.591     -7641.297       511.7216      -7129.5754    
     32500   3935.8064      29179.291      12321.591     -7637.7392      508.23417     -7129.505     
     32600   3924.3941      22326.249      12321.591     -7636.2816      506.76048     -7129.5211    
     32700   3955.8604      24521.798      12321.591     -7640.3743      510.82375     -7129.5506    
     32800   3986.1892      23790.42       12321.591     -7644.3253      514.74014     -7129.5851    
     32900   4123.7044      22515.616      12321.591     -7662.0505      532.4976      -7129.5529    
     33000   4015.9567      20324.203      12321.591     -7648.1374      518.58405     -7129.5533    
     33100   4082.1325      24632.762      12321.591     -7656.6786      527.12939     -7129.5492    
     33200   3896.2678      22468.415      12321.591     -7632.6448      503.12851     -7129.5163    
     33300   3978.3894      25248.064      12321.591     -7643.254       513.73295     -7129.521     
     33400   3857.419       37495.466      12321.591     -7627.6455      498.11193     -7129.5335    
     33500   3972.4012      26087.781      12321.591     -7642.5207      512.95968     -7129.5611    
     33600   3812.4579      37533.401      12321.591     -7621.8375      492.30606     -7129.5315    
     33700   3833.0103      32095.313      12321.591     -7624.5246      494.96001     -7129.5646    
     33800   3775.6873      43868.764      12321.591     -7617.0793      487.55784     -7129.5214    
     33900   3770.085       34941.823      12321.591     -7616.3701      486.83441     -7129.5357    
     34000   3689.7468      51977.886      12321.591     -7606.0286      476.46027     -7129.5683    
     34100   3917.8796      35158.111      12321.591     -7635.5126      505.91925     -7129.5934    
     34200   3666.8122      45365.358      12321.591     -7603.0093      473.49871     -7129.5106    
     34300   3791.3021      41747.177      12321.591     -7619.112       489.57419     -7129.5378    
     34400   3784.5308      35136.933      12321.591     -7618.2432      488.69981     -7129.5434    
     34500   3726.8192      54296.792      12321.591     -7610.8315      481.24746     -7129.5841    
     34600   3768.2935      38826.477      12321.591     -7616.1309      486.60307     -7129.5278    
     34700   3700.9222      42766.142      12321.591     -7607.4351      477.90336     -7129.5317    
     34800   3675.7845      35779.266      12321.591     -7604.1447      474.65731     -7129.4874    
     34900   3604.9642      45247.612      12321.591     -7594.9929      465.51222     -7129.4807    
     35000   3766.862       39053.157      12321.591     -7615.9367      486.41822     -7129.5185    
     35100   3747.7494      42042.563      12321.591     -7613.4665      483.9502      -7129.5163    
     35200   3599.5871      44644.971      12321.591     -7594.3531      464.81787     -7129.5352    
     35300   3623.5036      54060.717      12321.591     -7597.4296      467.90623     -7129.5234    
     35400   3582.5059      43196.694      12321.591     -7592.0975      462.61215     -7129.4853    
     35500   3610.3602      49046.524      12321.591     -7595.6833      466.209       -7129.4743    
     35600   3571.9329      52853.295      12321.591     -7590.8102      461.24686     -7129.5633    
     35700   3590.7992      55199.142      12321.591     -7593.2251      463.68308     -7129.5421    
     35800   3476.5765      56454.332      12321.591     -7578.4393      448.9334      -7129.5059    
     35900   3512.2099      47515.261      12321.591     -7583.0659      453.53477     -7129.5312    
     36000   3516.4713      55667.49       12321.591     -7583.5807      454.08505     -7129.4957    
     36100   3562.154       55288.393      12321.591     -7589.5274      459.9841      -7129.5433    
     36200   3419.1204      67733.221      12321.591     -7570.9972      441.51404     -7129.4832    
     36300   3444.5947      58437.938      12321.591     -7574.3243      444.80356     -7129.5207    
     36400   3541.9006      45943.592      12321.591     -7586.885       457.36876     -7129.5163    
     36500   3456.8047      52749.24       12321.591     -7575.8912      446.38025     -7129.5109    
     36600   3416.0589      50991.914      12321.591     -7570.5845      441.11871     -7129.4657    
     36700   3464.3188      44740.288      12321.591     -7576.8403      447.35055     -7129.4898    
     36800   3451.6141      58654.043      12321.591     -7575.2266      445.70998     -7129.5166    
     36900   3337.6535      57348.472      12321.591     -7560.4677      430.99415     -7129.4735    
     37000   3416.6957      58370.816      12321.591     -7570.7216      441.20094     -7129.5206    
     37100   3399.6555      63303.311      12321.591     -7568.5149      439.00052     -7129.5144    
     37200   3381.4503      55840.759      12321.591     -7566.1609      436.64967     -7129.5112    
     37300   3262.0028      57042.242      12321.591     -7550.7132      421.2253      -7129.4879    
     37400   3469.2912      61291.244      12321.591     -7577.5271      447.99264     -7129.5344    
     37500   3296.7307      52872.495      12321.591     -7555.1701      425.70975     -7129.4604    
     37600   3343.4207      61015.786      12321.591     -7561.2405      431.73888     -7129.5016    
     37700   3512.5974      51202.362      12321.591     -7583.1467      453.58481     -7129.5618    
     37800   3393.6825      51152.84       12321.591     -7567.7117      438.22923     -7129.4825    
     37900   3291.1678      57144.033      12321.591     -7554.4476      424.99141     -7129.4562    
     38000   3425.9789      60704.127      12321.591     -7571.9048      442.39968     -7129.5051    
     38100   3460.9864      57556.91       12321.591     -7576.4604      446.92024     -7129.5401    
     38200   3307.8962      60413.191      12321.591     -7556.6699      427.15156     -7129.5184    
     38300   3355.9113      53849.285      12321.591     -7562.8447      433.3518      -7129.4929    
     38400   3399.9305      59568.736      12321.591     -7568.5552      439.03604     -7129.5192    
     38500   3368.9046      56094.582      12321.591     -7564.5291      435.02963     -7129.4995    
     38600   3277.5095      70800.595      12321.591     -7552.7206      423.2277      -7129.4929    
     38700   3413.3925      61968.618      12321.591     -7570.2896      440.7744      -7129.5152    
     38800   3386.8625      54428.434      12321.591     -7566.818       437.34855     -7129.4695    
     38900   3254.2197      64337.052      12321.591     -7549.7036      420.22027     -7129.4833    
     39000   3391.1236      57503.34       12321.591     -7567.4009      437.89879     -7129.5021    
     39100   3280.4767      60061.67       12321.591     -7553.0937      423.61086     -7129.4829    
     39200   3278.4985      60572.468      12321.591     -7552.8259      423.35541     -7129.4705    
     39300   3305.2851      67074.596      12321.591     -7556.3001      426.81438     -7129.4858    
     39400   3379.6738      57309.279      12321.591     -7565.925       436.42027     -7129.5047    
     39500   3266.2582      57428.247      12321.591     -7551.2374      421.77482     -7129.4626    
     39600   3325.6712      60517.804      12321.591     -7558.9355      429.44686     -7129.4886    
     39700   3421.4619      54465.144      12321.591     -7571.3657      441.81641     -7129.5493    
     39800   3465.9288      55319.645      12321.591     -7577.071       447.55845     -7129.5125    
     39900   3388.3344      53070.877      12321.591     -7567.0398      437.53862     -7129.5011    
     40000   3354.0655      60285.852      12321.591     -7562.553       433.11345     -7129.4395    
Loop time of 99.9887 on 6 procs for 40000 steps with 1000 atoms

Performance: 34.564 ns/day, 0.694 hours/ns, 400.045 timesteps/s, 400.045 katom-step/s
99.9% CPU use with 6 MPI tasks x no OpenMP threads

MPI task timing breakdown:
Section |  min time  |  avg time  |  max time  |%varavg| %total
---------------------------------------------------------------
Pair    | 33.747     | 40.805     | 61.669     | 152.0 | 40.81
Kspace  | 31.847     | 53.372     | 60.566     | 136.9 | 53.38
Neigh   | 1.9912     | 2.1432     | 2.6779     |  16.6 |  2.14
Comm    | 2.0237     | 2.2255     | 2.3347     |   7.1 |  2.23
Output  | 0.088551   | 0.094273   | 0.099527   |   1.2 |  0.09
Modify  | 1.0937     | 1.1776     | 1.3647     |   9.3 |  1.18
Other   |            | 0.1703     |            |       |  0.17

Nlocal:        166.667 ave         171 max         162 min
Histogram: 1 0 0 1 1 1 0 1 0 1
Nghost:        4138.83 ave        4150 max        4122 min
Histogram: 1 0 1 0 0 0 1 1 0 2
Neighs:        48864.8 ave       51627 max       45992 min
Histogram: 1 1 0 1 0 0 1 0 1 1

Total # of neighbors = 293189
Ave neighs/atom = 293.189
Neighbor list builds = 1956
Dangerous builds = 0

unfix myNVT
Total wall time: 0:01:40
